 Entering Gaussian System, Link 0=g09
 Initial command:
 /cm/shared/apps/gaussian/g09revD.01/g09/l1.exe "//home/wpurwant/Testbeds/gaussian/coronene/G09-C24H12_opt_RHF_cc-pVDZ.com.o113291.tmp/Gau-2546.inp" -scrdir="//home/wpurwant/Testbeds/gaussian/coronene/G09-C24H12_opt_RHF_cc-pVDZ.com.o113291.tmp/"
 Entering Link 1 = /cm/shared/apps/gaussian/g09revD.01/g09/l1.exe PID=      2549.
  
 Copyright (c) 1988,1990,1992,1993,1995,1998,2003,2009,2013,
            Gaussian, Inc.  All Rights Reserved.
  
 This is part of the Gaussian(R) 09 program.  It is based on
 the Gaussian(R) 03 system (copyright 2003, Gaussian, Inc.),
 the Gaussian(R) 98 system (copyright 1998, Gaussian, Inc.),
 the Gaussian(R) 94 system (copyright 1995, Gaussian, Inc.),
 the Gaussian 92(TM) system (copyright 1992, Gaussian, Inc.),
 the Gaussian 90(TM) system (copyright 1990, Gaussian, Inc.),
 the Gaussian 88(TM) system (copyright 1988, Gaussian, Inc.),
 the Gaussian 86(TM) system (copyright 1986, Carnegie Mellon
 University), and the Gaussian 82(TM) system (copyright 1983,
 Carnegie Mellon University). Gaussian is a federally registered
 trademark of Gaussian, Inc.
  
 This software contains proprietary and confidential information,
 including trade secrets, belonging to Gaussian, Inc.
  
 This software is provided under written license and may be
 used, copied, transmitted, or stored only in accord with that
 written license.
  
 The following legend is applicable only to US Government
 contracts under FAR:
  
                    RESTRICTED RIGHTS LEGEND
  
 Use, reproduction and disclosure by the US Government is
 subject to restrictions as set forth in subparagraphs (a)
 and (c) of the Commercial Computer Software - Restricted
 Rights clause in FAR 52.227-19.
  
 Gaussian, Inc.
 340 Quinnipiac St., Bldg. 40, Wallingford CT 06492
  
  
 ---------------------------------------------------------------
 Warning -- This program may not be used in any manner that
 competes with the business of Gaussian, Inc. or will provide
 assistance to any competitor of Gaussian, Inc.  The licensee
 of this program is prohibited from giving any competitor of
 Gaussian, Inc. access to this program.  By using this program,
 the user acknowledges that Gaussian, Inc. is engaged in the
 business of creating and licensing software in the field of
 computational chemistry and represents and warrants to the
 licensee that it is not a competitor of Gaussian, Inc. and that
 it will not use this program in any manner prohibited above.
 ---------------------------------------------------------------
  

 Cite this work as:
 Gaussian 09, Revision D.01,
 M. J. Frisch, G. W. Trucks, H. B. Schlegel, G. E. Scuseria, 
 M. A. Robb, J. R. Cheeseman, G. Scalmani, V. Barone, B. Mennucci, 
 G. A. Petersson, H. Nakatsuji, M. Caricato, X. Li, H. P. Hratchian, 
 A. F. Izmaylov, J. Bloino, G. Zheng, J. L. Sonnenberg, M. Hada, 
 M. Ehara, K. Toyota, R. Fukuda, J. Hasegawa, M. Ishida, T. Nakajima, 
 Y. Honda, O. Kitao, H. Nakai, T. Vreven, J. A. Montgomery, Jr., 
 J. E. Peralta, F. Ogliaro, M. Bearpark, J. J. Heyd, E. Brothers, 
 K. N. Kudin, V. N. Staroverov, T. Keith, R. Kobayashi, J. Normand, 
 K. Raghavachari, A. Rendell, J. C. Burant, S. S. Iyengar, J. Tomasi, 
 M. Cossi, N. Rega, J. M. Millam, M. Klene, J. E. Knox, J. B. Cross, 
 V. Bakken, C. Adamo, J. Jaramillo, R. Gomperts, R. E. Stratmann, 
 O. Yazyev, A. J. Austin, R. Cammi, C. Pomelli, J. W. Ochterski, 
 R. L. Martin, K. Morokuma, V. G. Zakrzewski, G. A. Voth, 
 P. Salvador, J. J. Dannenberg, S. Dapprich, A. D. Daniels, 
 O. Farkas, J. B. Foresman, J. V. Ortiz, J. Cioslowski, 
 and D. J. Fox, Gaussian, Inc., Wallingford CT, 2013.
 
 ******************************************
 Gaussian 09:  ES64L-G09RevD.01 24-Apr-2013
                 9-Dec-2020 
 ******************************************
 %mem=4096MB
 --------------------------------
 #RHF/cc-pVDZ 5D 7F units=Ang opt
 --------------------------------
 1/18=20,19=15,38=1/1,3;
 2/9=110,12=2,17=6,18=5,40=1/2;
 3/5=16,8=11,11=1,16=1,25=1,30=1,71=1,116=1/1,2,3;
 4//1;
 5/5=2,38=5/2;
 6/7=2,8=2,9=2,10=2,28=1/1;
 7//1,2,3,16;
 1/18=20,19=15/3(2);
 2/9=110/2;
 99//99;
 2/9=110/2;
 3/5=16,8=11,11=1,16=1,25=1,30=1,71=1,116=1/1,2,3;
 4/5=5,16=3,69=1/1;
 5/5=2,38=5/2;
 7//1,2,3,16;
 1/18=20,19=15/3(-5);
 2/9=110/2;
 6/7=2,8=2,9=2,10=2,19=2,28=1/1;
 99/9=1/99;
 -------------------------------------------------------
 Coronene RHF with cc-pVDZ basis (geometry optimization)
 -------------------------------------------------------
 Symbolic Z-matrix:
 Charge =  0 Multiplicity = 1
 C                     0.        1.43738   0. 
 C                     1.24481   0.71869   0. 
 C                     1.24481  -0.71869   0. 
 C                     0.       -1.43738   0. 
 C                    -1.24481  -0.71869   0. 
 C                    -1.24481   0.71869   0. 
 C                     0.        2.83232   0. 
 C                     2.45286   1.41616   0. 
 C                     2.45286  -1.41616   0. 
 C                     0.       -2.83232   0. 
 C                    -2.45286  -1.41616   0. 
 C                    -2.45286   1.41616   0. 
 C                     1.25753   3.52686   0. 
 C                     2.42559   2.85248   0. 
 C                     3.68312   0.67438   0. 
 C                     3.68312  -0.67438   0. 
 C                     2.42559  -2.85248   0. 
 C                     1.25753  -3.52686   0. 
 C                    -1.25753  -3.52686   0. 
 C                    -2.42559  -2.85248   0. 
 C                    -3.68312  -0.67438   0. 
 C                    -3.68312   0.67438   0. 
 C                    -2.42559   2.85248   0. 
 C                    -1.25753   3.52686   0. 
 H                     1.24673   4.60958   0. 
 H                     3.36865   3.38448   0. 
 H                     4.61537   1.22509   0. 
 H                     4.61537  -1.22509   0. 
 H                     3.36865  -3.38448   0. 
 H                     1.24673  -4.60958   0. 
 H                    -1.24673  -4.60958   0. 
 H                    -3.36865  -3.38448   0. 
 H                    -4.61537  -1.22509   0. 
 H                    -4.61537   1.22509   0. 
 H                    -3.36865   3.38448   0. 
 H                    -1.24673   4.60958   0. 
 

 GradGradGradGradGradGradGradGradGradGradGradGradGradGradGradGradGradGrad
 Berny optimization.
 Initialization pass.
                           ----------------------------
                           !    Initial Parameters    !
                           ! (Angstroms and Degrees)  !
 --------------------------                            --------------------------
 ! Name  Definition              Value          Derivative Info.                !
 --------------------------------------------------------------------------------
 ! R1    R(1,2)                  1.4374         estimate D2E/DX2                !
 ! R2    R(1,6)                  1.4374         estimate D2E/DX2                !
 ! R3    R(1,7)                  1.3949         estimate D2E/DX2                !
 ! R4    R(2,3)                  1.4374         estimate D2E/DX2                !
 ! R5    R(2,8)                  1.3949         estimate D2E/DX2                !
 ! R6    R(3,4)                  1.4374         estimate D2E/DX2                !
 ! R7    R(3,9)                  1.3949         estimate D2E/DX2                !
 ! R8    R(4,5)                  1.4374         estimate D2E/DX2                !
 ! R9    R(4,10)                 1.3949         estimate D2E/DX2                !
 ! R10   R(5,6)                  1.4374         estimate D2E/DX2                !
 ! R11   R(5,11)                 1.3949         estimate D2E/DX2                !
 ! R12   R(6,12)                 1.3949         estimate D2E/DX2                !
 ! R13   R(7,13)                 1.4366         estimate D2E/DX2                !
 ! R14   R(7,24)                 1.4366         estimate D2E/DX2                !
 ! R15   R(8,14)                 1.4366         estimate D2E/DX2                !
 ! R16   R(8,15)                 1.4366         estimate D2E/DX2                !
 ! R17   R(9,16)                 1.4366         estimate D2E/DX2                !
 ! R18   R(9,17)                 1.4366         estimate D2E/DX2                !
 ! R19   R(10,18)                1.4366         estimate D2E/DX2                !
 ! R20   R(10,19)                1.4366         estimate D2E/DX2                !
 ! R21   R(11,20)                1.4366         estimate D2E/DX2                !
 ! R22   R(11,21)                1.4366         estimate D2E/DX2                !
 ! R23   R(12,22)                1.4366         estimate D2E/DX2                !
 ! R24   R(12,23)                1.4366         estimate D2E/DX2                !
 ! R25   R(13,14)                1.3488         estimate D2E/DX2                !
 ! R26   R(13,25)                1.0828         estimate D2E/DX2                !
 ! R27   R(14,26)                1.0828         estimate D2E/DX2                !
 ! R28   R(15,16)                1.3488         estimate D2E/DX2                !
 ! R29   R(15,27)                1.0828         estimate D2E/DX2                !
 ! R30   R(16,28)                1.0828         estimate D2E/DX2                !
 ! R31   R(17,18)                1.3488         estimate D2E/DX2                !
 ! R32   R(17,29)                1.0828         estimate D2E/DX2                !
 ! R33   R(18,30)                1.0828         estimate D2E/DX2                !
 ! R34   R(19,20)                1.3488         estimate D2E/DX2                !
 ! R35   R(19,31)                1.0828         estimate D2E/DX2                !
 ! R36   R(20,32)                1.0828         estimate D2E/DX2                !
 ! R37   R(21,22)                1.3488         estimate D2E/DX2                !
 ! R38   R(21,33)                1.0828         estimate D2E/DX2                !
 ! R39   R(22,34)                1.0828         estimate D2E/DX2                !
 ! R40   R(23,24)                1.3488         estimate D2E/DX2                !
 ! R41   R(23,35)                1.0828         estimate D2E/DX2                !
 ! R42   R(24,36)                1.0828         estimate D2E/DX2                !
 ! A1    A(2,1,6)              120.0            estimate D2E/DX2                !
 ! A2    A(2,1,7)              120.0            estimate D2E/DX2                !
 ! A3    A(6,1,7)              120.0            estimate D2E/DX2                !
 ! A4    A(1,2,3)              120.0            estimate D2E/DX2                !
 ! A5    A(1,2,8)              120.0            estimate D2E/DX2                !
 ! A6    A(3,2,8)              120.0            estimate D2E/DX2                !
 ! A7    A(2,3,4)              120.0            estimate D2E/DX2                !
 ! A8    A(2,3,9)              120.0            estimate D2E/DX2                !
 ! A9    A(4,3,9)              120.0            estimate D2E/DX2                !
 ! A10   A(3,4,5)              120.0            estimate D2E/DX2                !
 ! A11   A(3,4,10)             120.0            estimate D2E/DX2                !
 ! A12   A(5,4,10)             120.0            estimate D2E/DX2                !
 ! A13   A(4,5,6)              120.0            estimate D2E/DX2                !
 ! A14   A(4,5,11)             120.0            estimate D2E/DX2                !
 ! A15   A(6,5,11)             120.0            estimate D2E/DX2                !
 ! A16   A(1,6,5)              120.0            estimate D2E/DX2                !
 ! A17   A(1,6,12)             120.0            estimate D2E/DX2                !
 ! A18   A(5,6,12)             120.0            estimate D2E/DX2                !
 ! A19   A(1,7,13)             118.9123         estimate D2E/DX2                !
 ! A20   A(1,7,24)             118.9123         estimate D2E/DX2                !
 ! A21   A(13,7,24)            122.1754         estimate D2E/DX2                !
 ! A22   A(2,8,14)             118.9123         estimate D2E/DX2                !
 ! A23   A(2,8,15)             118.9123         estimate D2E/DX2                !
 ! A24   A(14,8,15)            122.1754         estimate D2E/DX2                !
 ! A25   A(3,9,16)             118.9123         estimate D2E/DX2                !
 ! A26   A(3,9,17)             118.9123         estimate D2E/DX2                !
 ! A27   A(16,9,17)            122.1754         estimate D2E/DX2                !
 ! A28   A(4,10,18)            118.9123         estimate D2E/DX2                !
 ! A29   A(4,10,19)            118.9123         estimate D2E/DX2                !
 ! A30   A(18,10,19)           122.1754         estimate D2E/DX2                !
 ! A31   A(5,11,20)            118.9123         estimate D2E/DX2                !
 ! A32   A(5,11,21)            118.9123         estimate D2E/DX2                !
 ! A33   A(20,11,21)           122.1754         estimate D2E/DX2                !
 ! A34   A(6,12,22)            118.9123         estimate D2E/DX2                !
 ! A35   A(6,12,23)            118.9123         estimate D2E/DX2                !
 ! A36   A(22,12,23)           122.1754         estimate D2E/DX2                !
 ! A37   A(7,13,14)            121.0877         estimate D2E/DX2                !
 ! A38   A(7,13,25)            118.3407         estimate D2E/DX2                !
 ! A39   A(14,13,25)           120.5716         estimate D2E/DX2                !
 ! A40   A(8,14,13)            121.0877         estimate D2E/DX2                !
 ! A41   A(8,14,26)            118.3407         estimate D2E/DX2                !
 ! A42   A(13,14,26)           120.5716         estimate D2E/DX2                !
 ! A43   A(8,15,16)            121.0877         estimate D2E/DX2                !
 ! A44   A(8,15,27)            118.3407         estimate D2E/DX2                !
 ! A45   A(16,15,27)           120.5716         estimate D2E/DX2                !
 ! A46   A(9,16,15)            121.0877         estimate D2E/DX2                !
 ! A47   A(9,16,28)            118.3407         estimate D2E/DX2                !
 ! A48   A(15,16,28)           120.5716         estimate D2E/DX2                !
 ! A49   A(9,17,18)            121.0877         estimate D2E/DX2                !
 ! A50   A(9,17,29)            118.3407         estimate D2E/DX2                !
 ! A51   A(18,17,29)           120.5716         estimate D2E/DX2                !
 ! A52   A(10,18,17)           121.0877         estimate D2E/DX2                !
 ! A53   A(10,18,30)           118.3407         estimate D2E/DX2                !
 ! A54   A(17,18,30)           120.5716         estimate D2E/DX2                !
 ! A55   A(10,19,20)           121.0877         estimate D2E/DX2                !
 ! A56   A(10,19,31)           118.3407         estimate D2E/DX2                !
 ! A57   A(20,19,31)           120.5716         estimate D2E/DX2                !
 ! A58   A(11,20,19)           121.0877         estimate D2E/DX2                !
 ! A59   A(11,20,32)           118.3407         estimate D2E/DX2                !
 ! A60   A(19,20,32)           120.5716         estimate D2E/DX2                !
 ! A61   A(11,21,22)           121.0877         estimate D2E/DX2                !
 ! A62   A(11,21,33)           118.3407         estimate D2E/DX2                !
 ! A63   A(22,21,33)           120.5716         estimate D2E/DX2                !
 ! A64   A(12,22,21)           121.0877         estimate D2E/DX2                !
 ! A65   A(12,22,34)           118.3407         estimate D2E/DX2                !
 ! A66   A(21,22,34)           120.5716         estimate D2E/DX2                !
 ! A67   A(12,23,24)           121.0877         estimate D2E/DX2                !
 ! A68   A(12,23,35)           118.3407         estimate D2E/DX2                !
 ! A69   A(24,23,35)           120.5716         estimate D2E/DX2                !
 ! A70   A(7,24,23)            121.0877         estimate D2E/DX2                !
 ! A71   A(7,24,36)            118.3407         estimate D2E/DX2                !
 ! A72   A(23,24,36)           120.5716         estimate D2E/DX2                !
 ! D1    D(6,1,2,3)              0.0            estimate D2E/DX2                !
 ! D2    D(6,1,2,8)            180.0            estimate D2E/DX2                !
 ! D3    D(7,1,2,3)            180.0            estimate D2E/DX2                !
 ! D4    D(7,1,2,8)              0.0            estimate D2E/DX2                !
 ! D5    D(2,1,6,5)              0.0            estimate D2E/DX2                !
 ! D6    D(2,1,6,12)           180.0            estimate D2E/DX2                !
 ! D7    D(7,1,6,5)            180.0            estimate D2E/DX2                !
 ! D8    D(7,1,6,12)             0.0            estimate D2E/DX2                !
 ! D9    D(2,1,7,13)             0.0            estimate D2E/DX2                !
 ! D10   D(2,1,7,24)           180.0            estimate D2E/DX2                !
 ! D11   D(6,1,7,13)           180.0            estimate D2E/DX2                !
 ! D12   D(6,1,7,24)             0.0            estimate D2E/DX2                !
 ! D13   D(1,2,3,4)              0.0            estimate D2E/DX2                !
 ! D14   D(1,2,3,9)            180.0            estimate D2E/DX2                !
 ! D15   D(8,2,3,4)            180.0            estimate D2E/DX2                !
 ! D16   D(8,2,3,9)              0.0            estimate D2E/DX2                !
 ! D17   D(1,2,8,14)             0.0            estimate D2E/DX2                !
 ! D18   D(1,2,8,15)           180.0            estimate D2E/DX2                !
 ! D19   D(3,2,8,14)           180.0            estimate D2E/DX2                !
 ! D20   D(3,2,8,15)             0.0            estimate D2E/DX2                !
 ! D21   D(2,3,4,5)              0.0            estimate D2E/DX2                !
 ! D22   D(2,3,4,10)           180.0            estimate D2E/DX2                !
 ! D23   D(9,3,4,5)            180.0            estimate D2E/DX2                !
 ! D24   D(9,3,4,10)             0.0            estimate D2E/DX2                !
 ! D25   D(2,3,9,16)             0.0            estimate D2E/DX2                !
 ! D26   D(2,3,9,17)           180.0            estimate D2E/DX2                !
 ! D27   D(4,3,9,16)           180.0            estimate D2E/DX2                !
 ! D28   D(4,3,9,17)             0.0            estimate D2E/DX2                !
 ! D29   D(3,4,5,6)              0.0            estimate D2E/DX2                !
 ! D30   D(3,4,5,11)           180.0            estimate D2E/DX2                !
 ! D31   D(10,4,5,6)           180.0            estimate D2E/DX2                !
 ! D32   D(10,4,5,11)            0.0            estimate D2E/DX2                !
 ! D33   D(3,4,10,18)            0.0            estimate D2E/DX2                !
 ! D34   D(3,4,10,19)          180.0            estimate D2E/DX2                !
 ! D35   D(5,4,10,18)          180.0            estimate D2E/DX2                !
 ! D36   D(5,4,10,19)            0.0            estimate D2E/DX2                !
 ! D37   D(4,5,6,1)              0.0            estimate D2E/DX2                !
 ! D38   D(4,5,6,12)           180.0            estimate D2E/DX2                !
 ! D39   D(11,5,6,1)           180.0            estimate D2E/DX2                !
 ! D40   D(11,5,6,12)            0.0            estimate D2E/DX2                !
 ! D41   D(4,5,11,20)            0.0            estimate D2E/DX2                !
 ! D42   D(4,5,11,21)          180.0            estimate D2E/DX2                !
 ! D43   D(6,5,11,20)          180.0            estimate D2E/DX2                !
 ! D44   D(6,5,11,21)            0.0            estimate D2E/DX2                !
 ! D45   D(1,6,12,22)          180.0            estimate D2E/DX2                !
 ! D46   D(1,6,12,23)            0.0            estimate D2E/DX2                !
 ! D47   D(5,6,12,22)            0.0            estimate D2E/DX2                !
 ! D48   D(5,6,12,23)          180.0            estimate D2E/DX2                !
 ! D49   D(1,7,13,14)            0.0            estimate D2E/DX2                !
 ! D50   D(1,7,13,25)          180.0            estimate D2E/DX2                !
 ! D51   D(24,7,13,14)         180.0            estimate D2E/DX2                !
 ! D52   D(24,7,13,25)           0.0            estimate D2E/DX2                !
 ! D53   D(1,7,24,23)            0.0            estimate D2E/DX2                !
 ! D54   D(1,7,24,36)          180.0            estimate D2E/DX2                !
 ! D55   D(13,7,24,23)         180.0            estimate D2E/DX2                !
 ! D56   D(13,7,24,36)           0.0            estimate D2E/DX2                !
 ! D57   D(2,8,14,13)            0.0            estimate D2E/DX2                !
 ! D58   D(2,8,14,26)          180.0            estimate D2E/DX2                !
 ! D59   D(15,8,14,13)         180.0            estimate D2E/DX2                !
 ! D60   D(15,8,14,26)           0.0            estimate D2E/DX2                !
 ! D61   D(2,8,15,16)            0.0            estimate D2E/DX2                !
 ! D62   D(2,8,15,27)          180.0            estimate D2E/DX2                !
 ! D63   D(14,8,15,16)         180.0            estimate D2E/DX2                !
 ! D64   D(14,8,15,27)           0.0            estimate D2E/DX2                !
 ! D65   D(3,9,16,15)            0.0            estimate D2E/DX2                !
 ! D66   D(3,9,16,28)          180.0            estimate D2E/DX2                !
 ! D67   D(17,9,16,15)         180.0            estimate D2E/DX2                !
 ! D68   D(17,9,16,28)           0.0            estimate D2E/DX2                !
 ! D69   D(3,9,17,18)            0.0            estimate D2E/DX2                !
 ! D70   D(3,9,17,29)          180.0            estimate D2E/DX2                !
 ! D71   D(16,9,17,18)         180.0            estimate D2E/DX2                !
 ! D72   D(16,9,17,29)           0.0            estimate D2E/DX2                !
 ! D73   D(4,10,18,17)           0.0            estimate D2E/DX2                !
 ! D74   D(4,10,18,30)         180.0            estimate D2E/DX2                !
 ! D75   D(19,10,18,17)        180.0            estimate D2E/DX2                !
 ! D76   D(19,10,18,30)          0.0            estimate D2E/DX2                !
 ! D77   D(4,10,19,20)           0.0            estimate D2E/DX2                !
 ! D78   D(4,10,19,31)         180.0            estimate D2E/DX2                !
 ! D79   D(18,10,19,20)        180.0            estimate D2E/DX2                !
 ! D80   D(18,10,19,31)          0.0            estimate D2E/DX2                !
 ! D81   D(5,11,20,19)           0.0            estimate D2E/DX2                !
 ! D82   D(5,11,20,32)         180.0            estimate D2E/DX2                !
 ! D83   D(21,11,20,19)        180.0            estimate D2E/DX2                !
 ! D84   D(21,11,20,32)          0.0            estimate D2E/DX2                !
 ! D85   D(5,11,21,22)           0.0            estimate D2E/DX2                !
 ! D86   D(5,11,21,33)         180.0            estimate D2E/DX2                !
 ! D87   D(20,11,21,22)        180.0            estimate D2E/DX2                !
 ! D88   D(20,11,21,33)          0.0            estimate D2E/DX2                !
 ! D89   D(6,12,22,21)           0.0            estimate D2E/DX2                !
 ! D90   D(6,12,22,34)         180.0            estimate D2E/DX2                !
 ! D91   D(23,12,22,21)        180.0            estimate D2E/DX2                !
 ! D92   D(23,12,22,34)          0.0            estimate D2E/DX2                !
 ! D93   D(6,12,23,24)           0.0            estimate D2E/DX2                !
 ! D94   D(6,12,23,35)         180.0            estimate D2E/DX2                !
 ! D95   D(22,12,23,24)        180.0            estimate D2E/DX2                !
 ! D96   D(22,12,23,35)          0.0            estimate D2E/DX2                !
 ! D97   D(7,13,14,8)            0.0            estimate D2E/DX2                !
 ! D98   D(7,13,14,26)         180.0            estimate D2E/DX2                !
 ! D99   D(25,13,14,8)         180.0            estimate D2E/DX2                !
 ! D100  D(25,13,14,26)          0.0            estimate D2E/DX2                !
 ! D101  D(8,15,16,9)            0.0            estimate D2E/DX2                !
 ! D102  D(8,15,16,28)         180.0            estimate D2E/DX2                !
 ! D103  D(27,15,16,9)         180.0            estimate D2E/DX2                !
 ! D104  D(27,15,16,28)          0.0            estimate D2E/DX2                !
 ! D105  D(9,17,18,10)           0.0            estimate D2E/DX2                !
 ! D106  D(9,17,18,30)         180.0            estimate D2E/DX2                !
 ! D107  D(29,17,18,10)        180.0            estimate D2E/DX2                !
 ! D108  D(29,17,18,30)          0.0            estimate D2E/DX2                !
 ! D109  D(10,19,20,11)          0.0            estimate D2E/DX2                !
 ! D110  D(10,19,20,32)        180.0            estimate D2E/DX2                !
 ! D111  D(31,19,20,11)        180.0            estimate D2E/DX2                !
 ! D112  D(31,19,20,32)          0.0            estimate D2E/DX2                !
 ! D113  D(11,21,22,12)          0.0            estimate D2E/DX2                !
 ! D114  D(11,21,22,34)        180.0            estimate D2E/DX2                !
 ! D115  D(33,21,22,12)        180.0            estimate D2E/DX2                !
 ! D116  D(33,21,22,34)          0.0            estimate D2E/DX2                !
 ! D117  D(12,23,24,7)           0.0            estimate D2E/DX2                !
 ! D118  D(12,23,24,36)        180.0            estimate D2E/DX2                !
 ! D119  D(35,23,24,7)         180.0            estimate D2E/DX2                !
 ! D120  D(35,23,24,36)          0.0            estimate D2E/DX2                !
 --------------------------------------------------------------------------------
 Trust Radius=3.00D-01 FncErr=1.00D-07 GrdErr=1.00D-07
 Number of steps in this run=    216 maximum allowed number of steps=    216.
 GradGradGradGradGradGradGradGradGradGradGradGradGradGradGradGradGradGrad

                          Input orientation:                          
 ---------------------------------------------------------------------
 Center     Atomic      Atomic             Coordinates (Angstroms)
 Number     Number       Type             X           Y           Z
 ---------------------------------------------------------------------
      1          6           0        0.000000    1.437376    0.000000
      2          6           0        1.244805    0.718688    0.000000
      3          6           0        1.244805   -0.718688    0.000000
      4          6           0        0.000000   -1.437376    0.000000
      5          6           0       -1.244805   -0.718688    0.000000
      6          6           0       -1.244805    0.718688    0.000000
      7          6           0        0.000000    2.832320    0.000000
      8          6           0        2.452861    1.416160    0.000000
      9          6           0        2.452861   -1.416160    0.000000
     10          6           0        0.000000   -2.832320    0.000000
     11          6           0       -2.452861   -1.416160    0.000000
     12          6           0       -2.452861    1.416160    0.000000
     13          6           0        1.257526    3.526864    0.000000
     14          6           0        2.425590    2.852482    0.000000
     15          6           0        3.683117    0.674382    0.000000
     16          6           0        3.683117   -0.674382    0.000000
     17          6           0        2.425590   -2.852482    0.000000
     18          6           0        1.257526   -3.526864    0.000000
     19          6           0       -1.257526   -3.526864    0.000000
     20          6           0       -2.425590   -2.852482    0.000000
     21          6           0       -3.683117   -0.674382    0.000000
     22          6           0       -3.683117    0.674382    0.000000
     23          6           0       -2.425590    2.852482    0.000000
     24          6           0       -1.257526    3.526864    0.000000
     25          1           0        1.246725    4.609575    0.000000
     26          1           0        3.368647    3.384483    0.000000
     27          1           0        4.615372    1.225092    0.000000
     28          1           0        4.615372   -1.225092    0.000000
     29          1           0        3.368647   -3.384483    0.000000
     30          1           0        1.246725   -4.609575    0.000000
     31          1           0       -1.246725   -4.609575    0.000000
     32          1           0       -3.368647   -3.384483    0.000000
     33          1           0       -4.615372   -1.225092    0.000000
     34          1           0       -4.615372    1.225092    0.000000
     35          1           0       -3.368647    3.384483    0.000000
     36          1           0       -1.246725    4.609575    0.000000
 ---------------------------------------------------------------------
                    Distance matrix (angstroms):
                    1          2          3          4          5
     1  C    0.000000
     2  C    1.437377   0.000000
     3  C    2.489609   1.437376   0.000000
     4  C    2.874752   2.489609   1.437377   0.000000
     5  C    2.489609   2.874754   2.489610   1.437377   0.000000
     6  C    1.437377   2.489610   2.874754   2.489609   1.437376
     7  C    1.394944   2.452953   3.762871   4.269696   3.762871
     8  C    2.452953   1.394943   2.452952   3.762871   4.269697
     9  C    3.762871   2.452952   1.394943   2.452953   3.762871
    10  C    4.269696   3.762871   2.452953   1.394944   2.452953
    11  C    3.762871   4.269697   3.762871   2.452953   1.394943
    12  C    2.452953   3.762871   4.269697   3.762871   2.452952
    13  C    2.438715   2.808205   4.245571   5.121040   4.928121
    14  C    2.808204   2.438715   3.761317   4.928120   5.121040
    15  C    3.761318   2.438715   2.808204   4.245571   5.121041
    16  C    4.245571   2.808204   2.438715   3.761318   4.928121
    17  C    4.928120   3.761317   2.438715   2.808204   4.245571
    18  C    5.121040   4.245571   2.808205   2.438715   3.761318
    19  C    5.121040   4.928121   3.761318   2.438715   2.808205
    20  C    4.928120   5.121040   4.245571   2.808204   2.438715
    21  C    4.245571   5.121041   4.928121   3.761318   2.438715
    22  C    3.761318   4.928121   5.121041   4.245571   2.808204
    23  C    2.808204   4.245571   5.121040   4.928120   3.761317
    24  C    2.438715   3.761318   4.928121   5.121040   4.245571
    25  H    3.408397   3.890887   5.328263   6.174135   5.882016
    26  H    3.890888   3.408397   4.620251   5.882016   6.174136
    27  H    4.620251   3.408397   3.890887   5.328264   6.174136
    28  H    5.328264   3.890887   3.408397   4.620251   5.882017
    29  H    5.882016   4.620251   3.408397   3.890888   5.328264
    30  H    6.174135   5.328263   3.890887   3.408397   4.620251
    31  H    6.174135   5.882016   4.620251   3.408397   3.890887
    32  H    5.882016   6.174136   5.328264   3.890888   3.408397
    33  H    5.328264   6.174136   5.882017   4.620251   3.408397
    34  H    4.620251   5.882017   6.174136   5.328264   3.890887
    35  H    3.890888   5.328264   6.174136   5.882016   4.620251
    36  H    3.408397   4.620251   5.882016   6.174135   5.328263
                    6          7          8          9         10
     6  C    0.000000
     7  C    2.452953   0.000000
     8  C    3.762871   2.832320   0.000000
     9  C    4.269697   4.905722   2.832320   0.000000
    10  C    3.762871   5.664640   4.905722   2.832320   0.000000
    11  C    2.452952   4.905722   5.664640   4.905722   2.832320
    12  C    1.394943   2.832320   4.905722   5.664640   4.905722
    13  C    3.761318   1.436580   2.425675   5.085500   6.482329
    14  C    4.245571   2.425674   1.436581   4.268729   6.180652
    15  C    4.928121   4.268729   1.436581   2.425674   5.085500
    16  C    5.121041   5.085500   2.425674   1.436581   4.268729
    17  C    5.121040   6.180652   4.268729   1.436581   2.425674
    18  C    4.928121   6.482329   5.085500   2.425675   1.436580
    19  C    4.245571   6.482329   6.180652   4.268729   1.436580
    20  C    3.761317   6.180652   6.482329   5.085499   2.425674
    21  C    2.808204   5.085500   6.482329   6.180652   4.268729
    22  C    2.438715   4.268729   6.180652   6.482329   5.085500
    23  C    2.438715   2.425674   5.085499   6.482329   6.180652
    24  C    2.808205   1.436580   4.268729   6.180652   6.482329
    25  H    4.620251   2.170935   3.413600   6.145262   7.545603
    26  H    5.328264   3.413600   2.170935   4.887212   7.070815
    27  H    5.882017   4.887212   2.170935   3.413600   6.145262
    28  H    6.174136   6.145262   3.413600   2.170935   4.887212
    29  H    6.174136   7.070815   4.887212   2.170935   3.413600
    30  H    5.882016   7.545603   6.145262   3.413600   2.170935
    31  H    5.328263   7.545603   7.070815   4.887211   2.170935
    32  H    4.620251   7.070815   7.545603   6.145262   3.413600
    33  H    3.890887   6.145262   7.545603   7.070815   4.887212
    34  H    3.408397   4.887212   7.070815   7.545603   6.145262
    35  H    3.408397   3.413600   6.145262   7.545603   7.070815
    36  H    3.890887   2.170935   4.887211   7.070815   7.545603
                   11         12         13         14         15
    11  C    0.000000
    12  C    2.832320   0.000000
    13  C    6.180652   4.268729   0.000000
    14  C    6.482329   5.085499   1.348764   0.000000
    15  C    6.482329   6.180652   3.744348   2.515053   0.000000
    16  C    6.180652   6.482329   4.851181   3.744348   1.348764
    17  C    5.085499   6.482329   6.485401   5.704964   3.744348
    18  C    4.268729   6.180652   7.053728   6.485401   4.851181
    19  C    2.425675   5.085500   7.488696   7.366234   6.485401
    20  C    1.436581   4.268729   7.366234   7.488696   7.053727
    21  C    1.436581   2.425674   6.485401   7.053727   7.488696
    22  C    2.425674   1.436581   5.704963   6.485401   7.366234
    23  C    4.268729   1.436581   3.744347   4.851180   6.485401
    24  C    5.085500   2.425675   2.515052   3.744347   5.704963
    25  H    7.070815   4.887211   1.082765   2.115916   4.628364
    26  H    7.545603   6.145262   2.115917   1.082766   2.728285
    27  H    7.545603   7.070815   4.071030   2.728286   1.082765
    28  H    7.070815   7.545603   5.818609   4.628364   2.115916
    29  H    6.145262   7.545603   7.226586   6.307859   4.071029
    30  H    4.887211   7.070815   8.136446   7.554602   5.818609
    31  H    3.413600   6.145262   8.513102   8.316742   7.226586
    32  H    2.170935   4.887212   8.316742   8.513103   8.136446
    33  H    2.170935   3.413600   7.554602   8.136446   8.513103
    34  H    3.413600   2.170935   6.307859   7.226586   8.316742
    35  H    4.887212   2.170935   4.628364   5.818609   7.554603
    36  H    6.145262   3.413600   2.728284   4.071029   6.307859
                   16         17         18         19         20
    16  C    0.000000
    17  C    2.515053   0.000000
    18  C    3.744348   1.348764   0.000000
    19  C    5.704963   3.744347   2.515052   0.000000
    20  C    6.485401   4.851180   3.744347   1.348764   0.000000
    21  C    7.366234   6.485401   5.704963   3.744348   2.515053
    22  C    7.488696   7.053727   6.485401   4.851181   3.744348
    23  C    7.053727   7.488696   7.366234   6.485401   5.704964
    24  C    6.485401   7.366234   7.488696   7.053728   6.485401
    25  H    5.818609   7.554602   8.136446   8.513102   8.316742
    26  H    4.071029   6.307859   7.226586   8.316742   8.513103
    27  H    2.115916   4.628364   5.818609   7.554602   8.136446
    28  H    1.082765   2.728286   4.071030   6.307859   7.226586
    29  H    2.728285   1.082766   2.115917   4.628364   5.818609
    30  H    4.628364   2.115916   1.082765   2.728284   4.071029
    31  H    6.307859   4.071029   2.728284   1.082765   2.115916
    32  H    7.554603   5.818609   4.628364   2.115917   1.082766
    33  H    8.316742   7.226586   6.307859   4.071030   2.728286
    34  H    8.513103   8.136446   7.554602   5.818609   4.628364
    35  H    8.136446   8.513103   8.316742   7.226586   6.307859
    36  H    7.226586   8.316742   8.513102   8.136446   7.554602
                   21         22         23         24         25
    21  C    0.000000
    22  C    1.348764   0.000000
    23  C    3.744348   2.515053   0.000000
    24  C    4.851181   3.744348   1.348764   0.000000
    25  H    7.226586   6.307859   4.071029   2.728284   0.000000
    26  H    8.136446   7.554603   5.818609   4.628364   2.450184
    27  H    8.513103   8.316742   7.226586   6.307859   4.775197
    28  H    8.316742   8.513103   8.136446   7.554602   6.737293
    29  H    7.554603   8.136446   8.513103   8.316742   8.270884
    30  H    6.307859   7.226586   8.316742   8.513102   9.219150
    31  H    4.628364   5.818609   7.554602   8.136446   9.550394
    32  H    2.728285   4.071029   6.307859   7.226586   9.230743
    33  H    1.082765   2.115916   4.628364   5.818609   8.270884
    34  H    2.115916   1.082765   2.728286   4.071030   6.768966
    35  H    4.071029   2.728285   1.082766   2.115917   4.775197
    36  H    5.818609   4.628364   2.115916   1.082765   2.493450
                   26         27         28         29         30
    26  H    0.000000
    27  H    2.493450   0.000000
    28  H    4.775197   2.450184   0.000000
    29  H    6.768966   4.775197   2.493450   0.000000
    30  H    8.270884   6.737293   4.775197   2.450184   0.000000
    31  H    9.230743   8.270884   6.768966   4.775197   2.493450
    32  H    9.550394   9.219151   8.270884   6.737294   4.775197
    33  H    9.219151   9.550395   9.230744   8.270884   6.768966
    34  H    8.270884   9.230744   9.550395   9.219151   8.270884
    35  H    6.737294   8.270884   9.219151   9.550394   9.230743
    36  H    4.775197   6.768966   8.270884   9.230743   9.550394
                   31         32         33         34         35
    31  H    0.000000
    32  H    2.450184   0.000000
    33  H    4.775197   2.493450   0.000000
    34  H    6.737293   4.775197   2.450184   0.000000
    35  H    8.270884   6.768966   4.775197   2.493450   0.000000
    36  H    9.219150   8.270884   6.737293   4.775197   2.450184
                   36
    36  H    0.000000
 Stoichiometry    C24H12
 Framework group  D6H[3C2'(CC.CC),SGH(C12H12)]
 Deg. of freedom     6
 Full point group                 D6H     NOp  24
 Largest Abelian subgroup         D2H     NOp   8
 Largest concise Abelian subgroup D2      NOp   4
                         Standard orientation:                         
 ---------------------------------------------------------------------
 Center     Atomic      Atomic             Coordinates (Angstroms)
 Number     Number       Type             X           Y           Z
 ---------------------------------------------------------------------
      1          6           0        0.000000    1.437376    0.000000
      2          6           0        1.244804    0.718688    0.000000
      3          6           0        1.244804   -0.718688    0.000000
      4          6           0        0.000000   -1.437376    0.000000
      5          6           0       -1.244804   -0.718688    0.000000
      6          6           0       -1.244804    0.718688    0.000000
      7          6           0        0.000000    2.832320    0.000000
      8          6           0        2.452861    1.416160    0.000000
      9          6           0        2.452861   -1.416160    0.000000
     10          6           0        0.000000   -2.832320    0.000000
     11          6           0       -2.452861   -1.416160    0.000000
     12          6           0       -2.452861    1.416160    0.000000
     13          6           0        1.257526    3.526864    0.000000
     14          6           0        2.425591    2.852481    0.000000
     15          6           0        3.683117    0.674383    0.000000
     16          6           0        3.683117   -0.674383    0.000000
     17          6           0        2.425591   -2.852481    0.000000
     18          6           0        1.257526   -3.526864    0.000000
     19          6           0       -1.257526   -3.526864    0.000000
     20          6           0       -2.425591   -2.852481    0.000000
     21          6           0       -3.683117   -0.674383    0.000000
     22          6           0       -3.683117    0.674383    0.000000
     23          6           0       -2.425591    2.852481    0.000000
     24          6           0       -1.257526    3.526864    0.000000
     25          1           0        1.246725    4.609575    0.000000
     26          1           0        3.368647    3.384483    0.000000
     27          1           0        4.615372    1.225092    0.000000
     28          1           0        4.615372   -1.225092    0.000000
     29          1           0        3.368647   -3.384483    0.000000
     30          1           0        1.246725   -4.609575    0.000000
     31          1           0       -1.246725   -4.609575    0.000000
     32          1           0       -3.368647   -3.384483    0.000000
     33          1           0       -4.615372   -1.225092    0.000000
     34          1           0       -4.615372    1.225092    0.000000
     35          1           0       -3.368647    3.384483    0.000000
     36          1           0       -1.246725    4.609575    0.000000
 ---------------------------------------------------------------------
 Rotational constants (GHZ):      0.3345758      0.3345758      0.1672879
 Standard basis: CC-pVDZ (5D, 7F)
 There are    83 symmetry adapted cartesian basis functions of AG  symmetry.
 There are    73 symmetry adapted cartesian basis functions of B1G symmetry.
 There are    25 symmetry adapted cartesian basis functions of B2G symmetry.
 There are    29 symmetry adapted cartesian basis functions of B3G symmetry.
 There are    25 symmetry adapted cartesian basis functions of AU  symmetry.
 There are    29 symmetry adapted cartesian basis functions of B1U symmetry.
 There are    83 symmetry adapted cartesian basis functions of B2U symmetry.
 There are    73 symmetry adapted cartesian basis functions of B3U symmetry.
 There are    76 symmetry adapted basis functions of AG  symmetry.
 There are    68 symmetry adapted basis functions of B1G symmetry.
 There are    25 symmetry adapted basis functions of B2G symmetry.
 There are    29 symmetry adapted basis functions of B3G symmetry.
 There are    25 symmetry adapted basis functions of AU  symmetry.
 There are    29 symmetry adapted basis functions of B1U symmetry.
 There are    76 symmetry adapted basis functions of B2U symmetry.
 There are    68 symmetry adapted basis functions of B3U symmetry.
   396 basis functions,   876 primitive gaussians,   420 cartesian basis functions
    78 alpha electrons       78 beta electrons
       nuclear repulsion energy      1833.9110315693 Hartrees.
 NAtoms=   36 NActive=   36 NUniq=    4 SFac= 4.00D+00 NAtFMM=   60 NAOKFM=F Big=F
 Integral buffers will be    131072 words long.
 Raffenetti 1 integral format.
 Two-electron integral symmetry is turned on.
 One-electron integrals computed using PRISM.
 NBasis=   396 RedAO= T EigKep=  2.76D-05  NBF=    76    68    25    29    25    29    76    68
 NBsUse=   396 1.00D-06 EigRej= -1.00D+00 NBFU=    76    68    25    29    25    29    76    68
 ExpMin= 1.22D-01 ExpMax= 6.67D+03 ExpMxC= 2.28D+02 IAcc=1 IRadAn=         1 AccDes= 0.00D+00
 Harris functional with IExCor=  205 and IRadAn=       1 diagonalized for initial guess.
 HarFok:  IExCor=  205 AccDes= 0.00D+00 IRadAn=         1 IDoV= 1 UseB2=F ITyADJ=14
 ICtDFT=  3500011 ScaDFX=  1.000000  1.000000  1.000000  1.000000
 FoFCou: FMM=F IPFlag=           0 FMFlag=      100000 FMFlg1=           0
         NFxFlg=           0 DoJE=T BraDBF=F KetDBF=T FulRan=T
         wScrn=  0.000000 ICntrl=     500 IOpCl=  0 I1Cent=   200000004 NGrid=           0
         NMat0=    1 NMatS0=      1 NMatT0=    0 NMatD0=    1 NMtDS0=    0 NMtDT0=    0
 Petite list used in FoFCou.
 Initial guess orbital symmetries:
       Occupied  (E1U) (E1U) (E2G) (E2G) (A1G) (B2U) (B1U) (E2G)
                 (E2G) (E1U) (E1U) (A2G) (B1U) (E2G) (E2G) (E1U)
                 (E1U) (A1G) (A1G) (E1U) (E1U) (B1U) (E2G) (E2G)
                 (A1G) (E1U) (E1U) (E2G) (E2G) (A1G) (B2U) (B1U)
                 (E1U) (E1U) (E2G) (E2G) (A1G) (E2G) (E2G) (E1U)
                 (E1U) (B1U) (A2G) (B2U) (A1G) (E1U) (E1U) (E2G)
                 (E2G) (E1U) (E1U) (E2G) (E2G) (A1G) (E1U) (E1U)
                 (B2U) (E2G) (E2G) (A2U) (B2U) (E1G) (E1G) (A2G)
                 (B1U) (E1U) (E1U) (E2G) (E2G) (E2U) (E2U) (A2U)
                 (B1G) (B2G) (E1G) (E1G) (E2U) (E2U)
       Virtual   (E1G) (E1G) (E2U) (E2U) (A2U) (A1U) (B2G) (E1G)
                 (E1G) (A1G) (E1U) (E1U) (E2G) (E2G) (E2U) (E2U)
                 (B2U) (B1U) (E2G) (E2G) (E1U) (E1U) (A1G) (B2G)
                 (E1U) (E1U) (A2G) (E2G) (E2G) (B1U) (E1U) (E1U)
                 (E2G) (E2G) (A1G) (B2U) (E2G) (E2G) (E1U) (E1U)
                 (A2G) (B1U) (A1G) (E1U) (E1U) (B1U) (B2U) (A2U)
                 (E2G) (E2G) (E1G) (E1G) (E2G) (E2G) (A2G) (A1G)
                 (E1U) (E1U) (E2U) (E2U) (E1U) (E1U) (B1U) (A1G)
                 (A2U) (E1U) (E1U) (E2G) (E2G) (B2G) (B2U) (B1G)
                 (E1U) (E1U) (E2G) (E2G) (A1G) (E2G) (E2G) (E1G)
                 (E1G) (E2U) (E2U) (B1U) (A2G) (A2U) (E2U) (E2U)
                 (E1G) (E1G) (E2G) (E2G) (B2U) (E1U) (E1U) (E2G)
                 (E2G) (A2G) (A1U) (B1U) (E1U) (E1U) (B2G) (A1G)
                 (E1G) (E1G) (B1G) (B1U) (E2U) (E2U) (A2U) (E1U)
                 (E1U) (E2G) (E2G) (E2G) (E2G) (E2U) (E2U) (E1G)
                 (E1G) (E1U) (E1U) (B2U) (A2G) (B1U) (A1G) (B2G)
                 (B1G) (E1G) (E1G) (E1U) (E1U) (E2G) (E2G) (E2U)
                 (E2U) (A2U) (A2G) (A1U) (B1G) (E1U) (E1U) (A1G)
                 (E1G) (E1G) (E2G) (E2G) (E2U) (E2U) (E1U) (E1U)
                 (B2U) (E2G) (E2G) (E1U) (E1U) (A1G) (B1U) (A2G)
                 (B1U) (A2U) (E2U) (E2U) (B2U) (E1U) (E1U) (A1G)
                 (B2G) (E2G) (E2G) (B2U) (E1G) (E1G) (A1G) (E2U)
                 (E2U) (E2G) (E2G) (E2G) (E2G) (E2G) (E2G) (B2G)
                 (E1U) (E1U) (E1G) (E1G) (E1U) (E1U) (A1U) (E1U)
                 (E1U) (B2U) (A1G) (A2G) (E1G) (E1G) (E2G) (E2G)
                 (A2U) (A1G) (B2U) (E1U) (E1U) (B1U) (E2G) (E2G)
                 (B1G) (E2U) (E2U) (E1U) (E1U) (E1G) (E1G) (B1U)
                 (E2U) (E2U) (E2G) (E2G) (B2U) (E2G) (E2G) (E1U)
                 (E1U) (E2U) (E2U) (A2G) (E1U) (E1U) (A1U) (E1G)
                 (E1G) (A1G) (A2U) (E2G) (E2G) (B1G) (B2G) (B1U)
                 (E2G) (E2G) (B1U) (E1U) (E1U) (A2G) (B2G) (E1U)
                 (E1U) (A2G) (A1G) (E1G) (E1G) (E1U) (E1U) (E2U)
                 (E2U) (A1U) (E2G) (E2G) (B1U) (B2U) (E1U) (E1U)
                 (E2G) (E2G) (A2G) (E1U) (E1U) (E2G) (E2G) (A2G)
                 (E1G) (E1G) (E2U) (E2U) (A1G) (B2U) (E2G) (E2G)
                 (B1U) (E1U) (E1U) (E2G) (E2G) (A1U) (B2G) (A1G)
                 (E2G) (E2G) (E1U) (E1U) (B2U) (B1U) (E2G) (E2G)
                 (E1U) (E1U) (A2G) (E1U) (E1U) (A1G) (E2G) (E2G)
                 (E2G) (E2G) (E1U) (E1U) (A2G) (B1U) (B1U) (B1U)
                 (E2G) (E2G) (E1U) (E1U) (B1U) (A2G)
 The electronic state of the initial guess is 1-A1G.
 Requested convergence on RMS density matrix=1.00D-08 within 128 cycles.
 Requested convergence on MAX density matrix=1.00D-06.
 Requested convergence on             energy=1.00D-06.
 No special actions if energy rises.
 Integral accuracy reduced to 1.0D-05 until final iterations.
 Initial convergence to 1.0D-05 achieved.  Increase integral accuracy.
 SCF Done:  E(RHF) =  -916.013927945     A.U. after   17 cycles
            NFock= 17  Conv=0.42D-08     -V/T= 2.0003

 **********************************************************************

            Population analysis using the SCF density.

 **********************************************************************

 Orbital symmetries:
       Occupied  (A1G) (E1U) (E1U) (E2G) (E2G) (B1U) (A1G) (E1U)
                 (E1U) (E2G) (E2G) (B1U) (B2U) (E2G) (E2G) (E1U)
                 (E1U) (A1G) (A2G) (E1U) (E1U) (E2G) (E2G) (B1U)
                 (A1G) (E1U) (E1U) (E2G) (E2G) (A1G) (B2U) (B1U)
                 (E1U) (E1U) (E2G) (E2G) (E2G) (E2G) (E1U) (E1U)
                 (A1G) (A2G) (B1U) (E1U) (E1U) (B2U) (A1G) (E2G)
                 (E2G) (E1U) (E1U) (E2G) (E2G) (A1G) (E1U) (E1U)
                 (B2U) (A2U) (E2G) (E2G) (B1U) (A2G) (E1G) (E1G)
                 (B2U) (E1U) (E1U) (E2G) (E2G) (E2U) (E2U) (A2U)
                 (B1G) (B2G) (E1G) (E1G) (E2U) (E2U)
       Virtual   (E1G) (E1G) (E2U) (E2U) (A2U) (A1U) (A1G) (E1U)
                 (E1U) (E2G) (E2G) (B2G) (B1U) (B2U) (E2G) (E2G)
                 (E1G) (E1G) (E1U) (E1U) (A2G) (A1G) (E2U) (E2U)
                 (E1U) (E1U) (B1U) (E2G) (E2G) (E1U) (E1U) (A1G)
                 (E2G) (E2G) (E2G) (E2G) (B2G) (E1U) (E1U) (B2U)
                 (A1G) (A2G) (B2U) (B1U) (E1U) (E1U) (B1U) (A2U)
                 (A1G) (E2G) (E2G) (E1G) (E1G) (E1U) (E1U) (E2G)
                 (E2G) (E2U) (E2U) (B1U) (A2U) (A1G) (E1U) (E1U)
                 (B1G) (A2G) (E2G) (E2G) (B2U) (B2G) (E1U) (E1U)
                 (E2G) (E2G) (E1G) (E1G) (E1U) (E1U) (A1G) (E2G)
                 (E2G) (E2U) (E2U) (B1U) (A2U) (E2U) (E2U) (B2U)
                 (A2G) (E1G) (E1G) (E2G) (E2G) (A1U) (E1U) (E1U)
                 (A1G) (E1U) (E1U) (B2G) (E2G) (E2G) (E1G) (E1G)
                 (B1G) (A2G) (B1U) (E2U) (E2U) (A2U) (E2G) (E2G)
                 (B1U) (E1U) (E1U) (E2G) (E2G) (B2U) (E2U) (E2U)
                 (E1U) (E1U) (E1G) (E1G) (A2G) (B2G) (E1U) (E1U)
                 (B1G) (E1G) (E1G) (A1G) (E2G) (E2G) (B1U) (E2U)
                 (E2U) (A2G) (A2U) (A1G) (A1U) (E1U) (E1U) (B1G)
                 (E2G) (E2G) (E1U) (E1U) (E1G) (E1G) (B2U) (E2U)
                 (E2U) (E2G) (E2G) (A1G) (E1U) (E1U) (B1U) (A2G)
                 (B1U) (E1U) (E1U) (E2U) (E2U) (A1G) (B2U) (A2U)
                 (B2G) (E2G) (E2G) (E1G) (E1G) (B2U) (E2U) (E2U)
                 (E2G) (E2G) (B2G) (E2G) (E2G) (A1G) (E2G) (E2G)
                 (E1U) (E1U) (E1G) (E1G) (A1U) (E1U) (E1U) (E1U)
                 (E1U) (B2U) (A2U) (E1G) (E1G) (E2G) (E2G) (A1G)
                 (A2G) (B2U) (B1G) (E2U) (E2U) (B1U) (A1G) (E1U)
                 (E1U) (E2G) (E2G) (E1G) (E1G) (E1U) (E1U) (B1U)
                 (E2U) (E2U) (E1U) (E1U) (E2G) (E2G) (E2U) (E2U)
                 (A2G) (B2U) (E1U) (E1U) (E2G) (E2G) (A1U) (A1G)
                 (E1G) (E1G) (A2U) (B1G) (E2G) (E2G) (B1U) (E2G)
                 (E2G) (B1U) (B2G) (E1U) (E1U) (A2G) (B2G) (E1U)
                 (E1U) (A2G) (A1G) (E1G) (E1G) (E1U) (E1U) (E2U)
                 (E2U) (A1U) (E2G) (E2G) (A2G) (E2G) (E2G) (B2U)
                 (B1U) (E1U) (E1U) (E2G) (E2G) (E1U) (E1U) (E1G)
                 (E1G) (E2U) (E2U) (A2G) (A1G) (B2U) (E2G) (E2G)
                 (B1U) (E1U) (E1U) (E2G) (E2G) (A1U) (B2G) (A1G)
                 (E2G) (E2G) (E1U) (E1U) (B1U) (B2U) (E1U) (E1U)
                 (A2G) (E2G) (E2G) (E1U) (E1U) (A1G) (E2G) (E2G)
                 (E2G) (E2G) (A2G) (B1U) (E1U) (E1U) (B1U) (B1U)
                 (E2G) (E2G) (E1U) (E1U) (B1U) (A2G)
 The electronic state is 1-A1G.
 Alpha  occ. eigenvalues --  -11.25110 -11.25079 -11.25079 -11.25038 -11.25038
 Alpha  occ. eigenvalues --  -11.25029 -11.24970 -11.24957 -11.24957 -11.24904
 Alpha  occ. eigenvalues --  -11.24904 -11.24867 -11.24401 -11.24399 -11.24399
 Alpha  occ. eigenvalues --  -11.24395 -11.24395 -11.24392 -11.24250 -11.24248
 Alpha  occ. eigenvalues --  -11.24248 -11.24244 -11.24244 -11.24242  -1.21705
 Alpha  occ. eigenvalues --   -1.17285  -1.17285  -1.11345  -1.11345  -1.08767
 Alpha  occ. eigenvalues --   -1.05694  -1.03080  -1.01538  -1.01538  -0.97548
 Alpha  occ. eigenvalues --   -0.97548  -0.86270  -0.86270  -0.86210  -0.86210
 Alpha  occ. eigenvalues --   -0.85239  -0.77307  -0.77019  -0.73819  -0.73819
 Alpha  occ. eigenvalues --   -0.72562  -0.70334  -0.65291  -0.65291  -0.63708
 Alpha  occ. eigenvalues --   -0.63708  -0.63222  -0.63222  -0.59784  -0.58882
 Alpha  occ. eigenvalues --   -0.58882  -0.58245  -0.57750  -0.56997  -0.56997
 Alpha  occ. eigenvalues --   -0.53210  -0.52316  -0.52249  -0.52249  -0.51258
 Alpha  occ. eigenvalues --   -0.50919  -0.50919  -0.45830  -0.45830  -0.44761
 Alpha  occ. eigenvalues --   -0.44761  -0.41873  -0.37189  -0.34426  -0.33322
 Alpha  occ. eigenvalues --   -0.33322  -0.26479  -0.26479
 Alpha virt. eigenvalues --    0.06638   0.06638   0.11827   0.11827   0.13361
 Alpha virt. eigenvalues --    0.18144   0.18203   0.19013   0.19013   0.20539
 Alpha virt. eigenvalues --    0.20539   0.21731   0.21847   0.23328   0.25055
 Alpha virt. eigenvalues --    0.25055   0.26662   0.26662   0.28529   0.28529
 Alpha virt. eigenvalues --    0.30714   0.36018   0.38001   0.38001   0.39215
 Alpha virt. eigenvalues --    0.39215   0.42013   0.42379   0.42379   0.45460
 Alpha virt. eigenvalues --    0.45460   0.45774   0.45906   0.45906   0.48710
 Alpha virt. eigenvalues --    0.48710   0.49990   0.50619   0.50619   0.51256
 Alpha virt. eigenvalues --    0.57801   0.59100   0.61600   0.62609   0.64170
 Alpha virt. eigenvalues --    0.64170   0.64680   0.65310   0.65375   0.66556
 Alpha virt. eigenvalues --    0.66556   0.66905   0.66905   0.68564   0.68564
 Alpha virt. eigenvalues --    0.69146   0.69146   0.69883   0.69883   0.69950
 Alpha virt. eigenvalues --    0.70433   0.71324   0.71366   0.71366   0.73206
 Alpha virt. eigenvalues --    0.73582   0.74282   0.74282   0.74738   0.75497
 Alpha virt. eigenvalues --    0.76383   0.76383   0.76469   0.76469   0.76514
 Alpha virt. eigenvalues --    0.76514   0.77223   0.77223   0.77465   0.78085
 Alpha virt. eigenvalues --    0.78085   0.80083   0.80083   0.82294   0.83491
 Alpha virt. eigenvalues --    0.83820   0.83820   0.86253   0.86288   0.86727
 Alpha virt. eigenvalues --    0.86727   0.89977   0.89977   0.91509   0.91639
 Alpha virt. eigenvalues --    0.91639   0.92493   0.93312   0.93312   0.93797
 Alpha virt. eigenvalues --    0.96908   0.96908   0.97617   0.97617   0.99457
 Alpha virt. eigenvalues --    0.99857   1.00349   1.03937   1.03937   1.06803
 Alpha virt. eigenvalues --    1.07650   1.07650   1.07806   1.11254   1.11254
 Alpha virt. eigenvalues --    1.12177   1.12177   1.13122   1.13335   1.13335
 Alpha virt. eigenvalues --    1.13541   1.13541   1.13892   1.13892   1.17225
 Alpha virt. eigenvalues --    1.17337   1.18728   1.18728   1.19096   1.19630
 Alpha virt. eigenvalues --    1.19630   1.19951   1.20000   1.20000   1.20473
 Alpha virt. eigenvalues --    1.22194   1.22194   1.22944   1.23788   1.25868
 Alpha virt. eigenvalues --    1.26544   1.26696   1.26696   1.27253   1.30030
 Alpha virt. eigenvalues --    1.30030   1.30439   1.30439   1.30809   1.30809
 Alpha virt. eigenvalues --    1.32481   1.35034   1.35034   1.37562   1.37562
 Alpha virt. eigenvalues --    1.40792   1.41375   1.41375   1.43564   1.48809
 Alpha virt. eigenvalues --    1.54573   1.60602   1.60602   1.61572   1.61572
 Alpha virt. eigenvalues --    1.61595   1.61985   1.62043   1.62488   1.62703
 Alpha virt. eigenvalues --    1.62703   1.65683   1.65683   1.67502   1.68565
 Alpha virt. eigenvalues --    1.68565   1.69088   1.69088   1.69748   1.71285
 Alpha virt. eigenvalues --    1.71285   1.71438   1.74520   1.74520   1.75227
 Alpha virt. eigenvalues --    1.75227   1.78125   1.78125   1.79324   1.81404
 Alpha virt. eigenvalues --    1.81404   1.84437   1.84437   1.86287   1.86390
 Alpha virt. eigenvalues --    1.86864   1.86864   1.87346   1.87346   1.87747
 Alpha virt. eigenvalues --    1.87872   1.89999   1.91520   1.94071   1.94071
 Alpha virt. eigenvalues --    1.94230   1.95870   1.96104   1.96104   1.97886
 Alpha virt. eigenvalues --    1.97886   1.98287   1.98287   2.00866   2.00866
 Alpha virt. eigenvalues --    2.01424   2.02229   2.02229   2.03134   2.03134
 Alpha virt. eigenvalues --    2.03961   2.03961   2.05329   2.05329   2.05670
 Alpha virt. eigenvalues --    2.06492   2.06984   2.06984   2.07153   2.07153
 Alpha virt. eigenvalues --    2.10050   2.11505   2.11751   2.11751   2.12747
 Alpha virt. eigenvalues --    2.13131   2.13912   2.13912   2.15901   2.16534
 Alpha virt. eigenvalues --    2.16534   2.16880   2.18942   2.21158   2.21158
 Alpha virt. eigenvalues --    2.22442   2.23029   2.27063   2.27063   2.28266
 Alpha virt. eigenvalues --    2.30088   2.32312   2.32312   2.34207   2.34207
 Alpha virt. eigenvalues --    2.35838   2.35838   2.37802   2.41855   2.41855
 Alpha virt. eigenvalues --    2.43718   2.43867   2.43867   2.45043   2.46239
 Alpha virt. eigenvalues --    2.46620   2.46620   2.48200   2.48200   2.51345
 Alpha virt. eigenvalues --    2.51345   2.54086   2.54086   2.55716   2.55716
 Alpha virt. eigenvalues --    2.56844   2.57264   2.63809   2.67209   2.67209
 Alpha virt. eigenvalues --    2.67994   2.73690   2.73690   2.75599   2.75599
 Alpha virt. eigenvalues --    2.76011   2.76769   2.84030   2.84160   2.84160
 Alpha virt. eigenvalues --    2.87122   2.87122   2.93777   2.94639   2.98320
 Alpha virt. eigenvalues --    2.98320   3.01950   3.02273   3.02273   3.06525
 Alpha virt. eigenvalues --    3.06525   3.10951   3.13802   3.13802   3.16938
 Alpha virt. eigenvalues --    3.16938   3.19328   3.19617   3.20548   3.20548
 Alpha virt. eigenvalues --    3.37771   3.59025   3.70091   3.70091   3.81221
 Alpha virt. eigenvalues --    3.81221   3.83880   4.01047
          Condensed to atoms (all electrons):
               1          2          3          4          5          6
     1  C    4.938510   0.455189  -0.034289  -0.063863  -0.034289   0.455189
     2  C    0.455189   4.938510   0.455189  -0.034289  -0.063863  -0.034289
     3  C   -0.034289   0.455189   4.938510   0.455189  -0.034289  -0.063863
     4  C   -0.063863  -0.034289   0.455189   4.938510   0.455189  -0.034289
     5  C   -0.034289  -0.063863  -0.034289   0.455189   4.938510   0.455189
     6  C    0.455189  -0.034289  -0.063863  -0.034289   0.455189   4.938510
     7  C    0.529447  -0.076594   0.013500  -0.003311   0.013500  -0.076594
     8  C   -0.076594   0.529447  -0.076594   0.013500  -0.003311   0.013500
     9  C    0.013500  -0.076594   0.529447  -0.076594   0.013500  -0.003311
    10  C   -0.003311   0.013500  -0.076594   0.529447  -0.076594   0.013500
    11  C    0.013500  -0.003311   0.013500  -0.076594   0.529447  -0.076594
    12  C   -0.076594   0.013500  -0.003311   0.013500  -0.076594   0.529447
    13  C   -0.046730  -0.045010  -0.001561   0.000009  -0.000015   0.007576
    14  C   -0.045010  -0.046730   0.007576  -0.000015   0.000009  -0.001561
    15  C    0.007576  -0.046730  -0.045010  -0.001561   0.000009  -0.000015
    16  C   -0.001561  -0.045010  -0.046730   0.007576  -0.000015   0.000009
    17  C   -0.000015   0.007576  -0.046730  -0.045010  -0.001561   0.000009
    18  C    0.000009  -0.001561  -0.045010  -0.046730   0.007576  -0.000015
    19  C    0.000009  -0.000015   0.007576  -0.046730  -0.045010  -0.001561
    20  C   -0.000015   0.000009  -0.001561  -0.045010  -0.046730   0.007576
    21  C   -0.001561   0.000009  -0.000015   0.007576  -0.046730  -0.045010
    22  C    0.007576  -0.000015   0.000009  -0.001561  -0.045010  -0.046730
    23  C   -0.045010  -0.001561   0.000009  -0.000015   0.007576  -0.046730
    24  C   -0.046730   0.007576  -0.000015   0.000009  -0.001561  -0.045010
    25  H    0.009383   0.000293   0.000027   0.000000   0.000002  -0.000318
    26  H    0.000293   0.009383  -0.000318   0.000002   0.000000   0.000027
    27  H   -0.000318   0.009383   0.000293   0.000027   0.000000   0.000002
    28  H    0.000027   0.000293   0.009383  -0.000318   0.000002   0.000000
    29  H    0.000002  -0.000318   0.009383   0.000293   0.000027   0.000000
    30  H    0.000000   0.000027   0.000293   0.009383  -0.000318   0.000002
    31  H    0.000000   0.000002  -0.000318   0.009383   0.000293   0.000027
    32  H    0.000002   0.000000   0.000027   0.000293   0.009383  -0.000318
    33  H    0.000027   0.000000   0.000002  -0.000318   0.009383   0.000293
    34  H   -0.000318   0.000002   0.000000   0.000027   0.000293   0.009383
    35  H    0.000293   0.000027   0.000000   0.000002  -0.000318   0.009383
    36  H    0.009383  -0.000318   0.000002   0.000000   0.000027   0.000293
               7          8          9         10         11         12
     1  C    0.529447  -0.076594   0.013500  -0.003311   0.013500  -0.076594
     2  C   -0.076594   0.529447  -0.076594   0.013500  -0.003311   0.013500
     3  C    0.013500  -0.076594   0.529447  -0.076594   0.013500  -0.003311
     4  C   -0.003311   0.013500  -0.076594   0.529447  -0.076594   0.013500
     5  C    0.013500  -0.003311   0.013500  -0.076594   0.529447  -0.076594
     6  C   -0.076594   0.013500  -0.003311   0.013500  -0.076594   0.529447
     7  C    4.998869  -0.053612   0.000147  -0.000048   0.000147  -0.053612
     8  C   -0.053612   4.998869  -0.053612   0.000147  -0.000048   0.000147
     9  C    0.000147  -0.053612   4.998869  -0.053612   0.000147  -0.000048
    10  C   -0.000048   0.000147  -0.053612   4.998869  -0.053612   0.000147
    11  C    0.000147  -0.000048   0.000147  -0.053612   4.998869  -0.053612
    12  C   -0.053612   0.000147  -0.000048   0.000147  -0.053612   4.998869
    13  C    0.497970  -0.038840  -0.000033   0.000000   0.000000  -0.000266
    14  C   -0.038840   0.497970  -0.000266   0.000000   0.000000  -0.000033
    15  C   -0.000266   0.497970  -0.038840  -0.000033   0.000000   0.000000
    16  C   -0.000033  -0.038840   0.497970  -0.000266   0.000000   0.000000
    17  C    0.000000  -0.000266   0.497970  -0.038840  -0.000033   0.000000
    18  C    0.000000  -0.000033  -0.038840   0.497970  -0.000266   0.000000
    19  C    0.000000   0.000000  -0.000266   0.497970  -0.038840  -0.000033
    20  C    0.000000   0.000000  -0.000033  -0.038840   0.497970  -0.000266
    21  C   -0.000033   0.000000   0.000000  -0.000266   0.497970  -0.038840
    22  C   -0.000266   0.000000   0.000000  -0.000033  -0.038840   0.497970
    23  C   -0.038840  -0.000033   0.000000   0.000000  -0.000266   0.497970
    24  C    0.497970  -0.000266   0.000000   0.000000  -0.000033  -0.038840
    25  H   -0.027541   0.005819   0.000000   0.000000   0.000000   0.000002
    26  H    0.005819  -0.027541   0.000002   0.000000   0.000000   0.000000
    27  H    0.000002  -0.027541   0.005819   0.000000   0.000000   0.000000
    28  H    0.000000   0.005819  -0.027541   0.000002   0.000000   0.000000
    29  H    0.000000   0.000002  -0.027541   0.005819   0.000000   0.000000
    30  H    0.000000   0.000000   0.005819  -0.027541   0.000002   0.000000
    31  H    0.000000   0.000000   0.000002  -0.027541   0.005819   0.000000
    32  H    0.000000   0.000000   0.000000   0.005819  -0.027541   0.000002
    33  H    0.000000   0.000000   0.000000   0.000002  -0.027541   0.005819
    34  H    0.000002   0.000000   0.000000   0.000000   0.005819  -0.027541
    35  H    0.005819   0.000000   0.000000   0.000000   0.000002  -0.027541
    36  H   -0.027541   0.000002   0.000000   0.000000   0.000000   0.005819
              13         14         15         16         17         18
     1  C   -0.046730  -0.045010   0.007576  -0.001561  -0.000015   0.000009
     2  C   -0.045010  -0.046730  -0.046730  -0.045010   0.007576  -0.001561
     3  C   -0.001561   0.007576  -0.045010  -0.046730  -0.046730  -0.045010
     4  C    0.000009  -0.000015  -0.001561   0.007576  -0.045010  -0.046730
     5  C   -0.000015   0.000009   0.000009  -0.000015  -0.001561   0.007576
     6  C    0.007576  -0.001561  -0.000015   0.000009   0.000009  -0.000015
     7  C    0.497970  -0.038840  -0.000266  -0.000033   0.000000   0.000000
     8  C   -0.038840   0.497970   0.497970  -0.038840  -0.000266  -0.000033
     9  C   -0.000033  -0.000266  -0.038840   0.497970   0.497970  -0.038840
    10  C    0.000000   0.000000  -0.000033  -0.000266  -0.038840   0.497970
    11  C    0.000000   0.000000   0.000000   0.000000  -0.000033  -0.000266
    12  C   -0.000266  -0.000033   0.000000   0.000000   0.000000   0.000000
    13  C    4.678681   0.601556   0.004850  -0.000169   0.000000   0.000000
    14  C    0.601556   4.678681  -0.083820   0.004850   0.000014   0.000000
    15  C    0.004850  -0.083820   4.678681   0.601556   0.004850  -0.000169
    16  C   -0.000169   0.004850   0.601556   4.678681  -0.083820   0.004850
    17  C    0.000000   0.000014   0.004850  -0.083820   4.678681   0.601556
    18  C    0.000000   0.000000  -0.000169   0.004850   0.601556   4.678681
    19  C    0.000000   0.000000   0.000000   0.000014   0.004850  -0.083820
    20  C    0.000000   0.000000   0.000000   0.000000  -0.000169   0.004850
    21  C    0.000000   0.000000   0.000000   0.000000   0.000000   0.000014
    22  C    0.000014   0.000000   0.000000   0.000000   0.000000   0.000000
    23  C    0.004850  -0.000169   0.000000   0.000000   0.000000   0.000000
    24  C   -0.083820   0.004850   0.000014   0.000000   0.000000   0.000000
    25  H    0.412007  -0.033809  -0.000233   0.000004   0.000000   0.000000
    26  H   -0.033809   0.412007  -0.010982   0.000233   0.000000   0.000000
    27  H    0.000233  -0.010982   0.412007  -0.033809  -0.000233   0.000004
    28  H    0.000004  -0.000233  -0.033809   0.412007  -0.010982   0.000233
    29  H    0.000000   0.000000   0.000233  -0.010982   0.412007  -0.033809
    30  H    0.000000   0.000000   0.000004  -0.000233  -0.033809   0.412007
    31  H    0.000000   0.000000   0.000000   0.000000   0.000233  -0.010982
    32  H    0.000000   0.000000   0.000000   0.000000   0.000004  -0.000233
    33  H    0.000000   0.000000   0.000000   0.000000   0.000000   0.000000
    34  H    0.000000   0.000000   0.000000   0.000000   0.000000   0.000000
    35  H   -0.000233   0.000004   0.000000   0.000000   0.000000   0.000000
    36  H   -0.010982   0.000233   0.000000   0.000000   0.000000   0.000000
              19         20         21         22         23         24
     1  C    0.000009  -0.000015  -0.001561   0.007576  -0.045010  -0.046730
     2  C   -0.000015   0.000009   0.000009  -0.000015  -0.001561   0.007576
     3  C    0.007576  -0.001561  -0.000015   0.000009   0.000009  -0.000015
     4  C   -0.046730  -0.045010   0.007576  -0.001561  -0.000015   0.000009
     5  C   -0.045010  -0.046730  -0.046730  -0.045010   0.007576  -0.001561
     6  C   -0.001561   0.007576  -0.045010  -0.046730  -0.046730  -0.045010
     7  C    0.000000   0.000000  -0.000033  -0.000266  -0.038840   0.497970
     8  C    0.000000   0.000000   0.000000   0.000000  -0.000033  -0.000266
     9  C   -0.000266  -0.000033   0.000000   0.000000   0.000000   0.000000
    10  C    0.497970  -0.038840  -0.000266  -0.000033   0.000000   0.000000
    11  C   -0.038840   0.497970   0.497970  -0.038840  -0.000266  -0.000033
    12  C   -0.000033  -0.000266  -0.038840   0.497970   0.497970  -0.038840
    13  C    0.000000   0.000000   0.000000   0.000014   0.004850  -0.083820
    14  C    0.000000   0.000000   0.000000   0.000000  -0.000169   0.004850
    15  C    0.000000   0.000000   0.000000   0.000000   0.000000   0.000014
    16  C    0.000014   0.000000   0.000000   0.000000   0.000000   0.000000
    17  C    0.004850  -0.000169   0.000000   0.000000   0.000000   0.000000
    18  C   -0.083820   0.004850   0.000014   0.000000   0.000000   0.000000
    19  C    4.678681   0.601556   0.004850  -0.000169   0.000000   0.000000
    20  C    0.601556   4.678681  -0.083820   0.004850   0.000014   0.000000
    21  C    0.004850  -0.083820   4.678681   0.601556   0.004850  -0.000169
    22  C   -0.000169   0.004850   0.601556   4.678681  -0.083820   0.004850
    23  C    0.000000   0.000014   0.004850  -0.083820   4.678681   0.601556
    24  C    0.000000   0.000000  -0.000169   0.004850   0.601556   4.678681
    25  H    0.000000   0.000000   0.000000   0.000000   0.000233  -0.010982
    26  H    0.000000   0.000000   0.000000   0.000000   0.000004  -0.000233
    27  H    0.000000   0.000000   0.000000   0.000000   0.000000   0.000000
    28  H    0.000000   0.000000   0.000000   0.000000   0.000000   0.000000
    29  H   -0.000233   0.000004   0.000000   0.000000   0.000000   0.000000
    30  H   -0.010982   0.000233   0.000000   0.000000   0.000000   0.000000
    31  H    0.412007  -0.033809  -0.000233   0.000004   0.000000   0.000000
    32  H   -0.033809   0.412007  -0.010982   0.000233   0.000000   0.000000
    33  H    0.000233  -0.010982   0.412007  -0.033809  -0.000233   0.000004
    34  H    0.000004  -0.000233  -0.033809   0.412007  -0.010982   0.000233
    35  H    0.000000   0.000000   0.000233  -0.010982   0.412007  -0.033809
    36  H    0.000000   0.000000   0.000004  -0.000233  -0.033809   0.412007
              25         26         27         28         29         30
     1  C    0.009383   0.000293  -0.000318   0.000027   0.000002   0.000000
     2  C    0.000293   0.009383   0.009383   0.000293  -0.000318   0.000027
     3  C    0.000027  -0.000318   0.000293   0.009383   0.009383   0.000293
     4  C    0.000000   0.000002   0.000027  -0.000318   0.000293   0.009383
     5  C    0.000002   0.000000   0.000000   0.000002   0.000027  -0.000318
     6  C   -0.000318   0.000027   0.000002   0.000000   0.000000   0.000002
     7  C   -0.027541   0.005819   0.000002   0.000000   0.000000   0.000000
     8  C    0.005819  -0.027541  -0.027541   0.005819   0.000002   0.000000
     9  C    0.000000   0.000002   0.005819  -0.027541  -0.027541   0.005819
    10  C    0.000000   0.000000   0.000000   0.000002   0.005819  -0.027541
    11  C    0.000000   0.000000   0.000000   0.000000   0.000000   0.000002
    12  C    0.000002   0.000000   0.000000   0.000000   0.000000   0.000000
    13  C    0.412007  -0.033809   0.000233   0.000004   0.000000   0.000000
    14  C   -0.033809   0.412007  -0.010982  -0.000233   0.000000   0.000000
    15  C   -0.000233  -0.010982   0.412007  -0.033809   0.000233   0.000004
    16  C    0.000004   0.000233  -0.033809   0.412007  -0.010982  -0.000233
    17  C    0.000000   0.000000  -0.000233  -0.010982   0.412007  -0.033809
    18  C    0.000000   0.000000   0.000004   0.000233  -0.033809   0.412007
    19  C    0.000000   0.000000   0.000000   0.000000  -0.000233  -0.010982
    20  C    0.000000   0.000000   0.000000   0.000000   0.000004   0.000233
    21  C    0.000000   0.000000   0.000000   0.000000   0.000000   0.000000
    22  C    0.000000   0.000000   0.000000   0.000000   0.000000   0.000000
    23  C    0.000233   0.000004   0.000000   0.000000   0.000000   0.000000
    24  C   -0.010982  -0.000233   0.000000   0.000000   0.000000   0.000000
    25  H    0.640841  -0.009617  -0.000008   0.000000   0.000000   0.000000
    26  H   -0.009617   0.640841   0.002734  -0.000008   0.000000   0.000000
    27  H   -0.000008   0.002734   0.640841  -0.009617  -0.000008   0.000000
    28  H    0.000000  -0.000008  -0.009617   0.640841   0.002734  -0.000008
    29  H    0.000000   0.000000  -0.000008   0.002734   0.640841  -0.009617
    30  H    0.000000   0.000000   0.000000  -0.000008  -0.009617   0.640841
    31  H    0.000000   0.000000   0.000000   0.000000  -0.000008   0.002734
    32  H    0.000000   0.000000   0.000000   0.000000   0.000000  -0.000008
    33  H    0.000000   0.000000   0.000000   0.000000   0.000000   0.000000
    34  H    0.000000   0.000000   0.000000   0.000000   0.000000   0.000000
    35  H   -0.000008   0.000000   0.000000   0.000000   0.000000   0.000000
    36  H    0.002734  -0.000008   0.000000   0.000000   0.000000   0.000000
              31         32         33         34         35         36
     1  C    0.000000   0.000002   0.000027  -0.000318   0.000293   0.009383
     2  C    0.000002   0.000000   0.000000   0.000002   0.000027  -0.000318
     3  C   -0.000318   0.000027   0.000002   0.000000   0.000000   0.000002
     4  C    0.009383   0.000293  -0.000318   0.000027   0.000002   0.000000
     5  C    0.000293   0.009383   0.009383   0.000293  -0.000318   0.000027
     6  C    0.000027  -0.000318   0.000293   0.009383   0.009383   0.000293
     7  C    0.000000   0.000000   0.000000   0.000002   0.005819  -0.027541
     8  C    0.000000   0.000000   0.000000   0.000000   0.000000   0.000002
     9  C    0.000002   0.000000   0.000000   0.000000   0.000000   0.000000
    10  C   -0.027541   0.005819   0.000002   0.000000   0.000000   0.000000
    11  C    0.005819  -0.027541  -0.027541   0.005819   0.000002   0.000000
    12  C    0.000000   0.000002   0.005819  -0.027541  -0.027541   0.005819
    13  C    0.000000   0.000000   0.000000   0.000000  -0.000233  -0.010982
    14  C    0.000000   0.000000   0.000000   0.000000   0.000004   0.000233
    15  C    0.000000   0.000000   0.000000   0.000000   0.000000   0.000000
    16  C    0.000000   0.000000   0.000000   0.000000   0.000000   0.000000
    17  C    0.000233   0.000004   0.000000   0.000000   0.000000   0.000000
    18  C   -0.010982  -0.000233   0.000000   0.000000   0.000000   0.000000
    19  C    0.412007  -0.033809   0.000233   0.000004   0.000000   0.000000
    20  C   -0.033809   0.412007  -0.010982  -0.000233   0.000000   0.000000
    21  C   -0.000233  -0.010982   0.412007  -0.033809   0.000233   0.000004
    22  C    0.000004   0.000233  -0.033809   0.412007  -0.010982  -0.000233
    23  C    0.000000   0.000000  -0.000233  -0.010982   0.412007  -0.033809
    24  C    0.000000   0.000000   0.000004   0.000233  -0.033809   0.412007
    25  H    0.000000   0.000000   0.000000   0.000000  -0.000008   0.002734
    26  H    0.000000   0.000000   0.000000   0.000000   0.000000  -0.000008
    27  H    0.000000   0.000000   0.000000   0.000000   0.000000   0.000000
    28  H    0.000000   0.000000   0.000000   0.000000   0.000000   0.000000
    29  H   -0.000008   0.000000   0.000000   0.000000   0.000000   0.000000
    30  H    0.002734  -0.000008   0.000000   0.000000   0.000000   0.000000
    31  H    0.640841  -0.009617  -0.000008   0.000000   0.000000   0.000000
    32  H   -0.009617   0.640841   0.002734  -0.000008   0.000000   0.000000
    33  H   -0.000008   0.002734   0.640841  -0.009617  -0.000008   0.000000
    34  H    0.000000  -0.000008  -0.009617   0.640841   0.002734  -0.000008
    35  H    0.000000   0.000000  -0.000008   0.002734   0.640841  -0.009617
    36  H    0.000000   0.000000   0.000000  -0.000008  -0.009617   0.640841
 Mulliken charges:
               1
     1  C    0.036291
     2  C    0.036291
     3  C    0.036291
     4  C    0.036291
     5  C    0.036291
     6  C    0.036291
     7  C   -0.166061
     8  C   -0.166061
     9  C   -0.166061
    10  C   -0.166061
    11  C   -0.166061
    12  C   -0.166061
    13  C    0.053717
    14  C    0.053717
    15  C    0.053717
    16  C    0.053717
    17  C    0.053717
    18  C    0.053717
    19  C    0.053717
    20  C    0.053717
    21  C    0.053717
    22  C    0.053717
    23  C    0.053717
    24  C    0.053717
    25  H    0.011169
    26  H    0.011169
    27  H    0.011169
    28  H    0.011169
    29  H    0.011169
    30  H    0.011169
    31  H    0.011169
    32  H    0.011169
    33  H    0.011169
    34  H    0.011169
    35  H    0.011169
    36  H    0.011169
 Sum of Mulliken charges =   0.00000
 Mulliken charges with hydrogens summed into heavy atoms:
               1
     1  C    0.036291
     2  C    0.036291
     3  C    0.036291
     4  C    0.036291
     5  C    0.036291
     6  C    0.036291
     7  C   -0.166061
     8  C   -0.166061
     9  C   -0.166061
    10  C   -0.166061
    11  C   -0.166061
    12  C   -0.166061
    13  C    0.064885
    14  C    0.064885
    15  C    0.064885
    16  C    0.064885
    17  C    0.064885
    18  C    0.064885
    19  C    0.064885
    20  C    0.064885
    21  C    0.064885
    22  C    0.064885
    23  C    0.064885
    24  C    0.064885
 Electronic spatial extent (au):  <R**2>=           6162.9191
 Charge=              0.0000 electrons
 Dipole moment (field-independent basis, Debye):
    X=              0.0000    Y=              0.0000    Z=              0.0000  Tot=              0.0000
 Quadrupole moment (field-independent basis, Debye-Ang):
   XX=           -116.8014   YY=           -116.8014   ZZ=           -148.4524
   XY=              0.0000   XZ=              0.0000   YZ=              0.0000
 Traceless Quadrupole moment (field-independent basis, Debye-Ang):
   XX=             10.5503   YY=             10.5503   ZZ=            -21.1007
   XY=              0.0000   XZ=              0.0000   YZ=              0.0000
 Octapole moment (field-independent basis, Debye-Ang**2):
  XXX=              0.0000  YYY=              0.0000  ZZZ=              0.0000  XYY=              0.0000
  XXY=              0.0000  XXZ=              0.0000  XZZ=              0.0000  YZZ=              0.0000
  YYZ=              0.0000  XYZ=              0.0000
 Hexadecapole moment (field-independent basis, Debye-Ang**3):
 XXXX=          -3811.7169 YYYY=          -3811.7169 ZZZZ=           -170.8486 XXXY=              0.0000
 XXXZ=              0.0000 YYYX=              0.0000 YYYZ=              0.0000 ZZZX=              0.0000
 ZZZY=              0.0000 XXYY=          -1270.5723 XXZZ=           -830.8481 YYZZ=           -830.8481
 XXYZ=              0.0000 YYXZ=              0.0000 ZZXY=              0.0000
 N-N= 1.833911031569D+03 E-N=-5.800934389233D+03  KE= 9.157023857359D+02
 Symmetry AG   KE= 2.589017622866D+02
 Symmetry B1G  KE= 1.867624766400D+02
 Symmetry B2G  KE= 5.975810234182D+00
 Symmetry B3G  KE= 6.063975093633D+00
 Symmetry AU   KE= 4.177918123253D+00
 Symmetry B1U  KE= 7.775281884214D+00
 Symmetry B2U  KE= 2.539500111603D+02
 Symmetry B3U  KE= 1.920951503138D+02
 Calling FoFJK, ICntrl=      2127 FMM=F ISym2X=1 I1Cent= 0 IOpClX= 0 NMat=1 NMatS=1 NMatT=0.
 ***** Axes restored to original set *****
 -------------------------------------------------------------------
 Center     Atomic                   Forces (Hartrees/Bohr)
 Number     Number              X              Y              Z
 -------------------------------------------------------------------
      1        6           0.000000000   -0.006806793    0.000000000
      2        6          -0.005894856   -0.003403397    0.000000000
      3        6          -0.005894856    0.003403397    0.000000000
      4        6           0.000000000    0.006806793    0.000000000
      5        6           0.005894856    0.003403397    0.000000000
      6        6           0.005894856   -0.003403397    0.000000000
      7        6           0.000000000    0.005510188    0.000000000
      8        6           0.004771963    0.002755094    0.000000000
      9        6           0.004771963   -0.002755094    0.000000000
     10        6           0.000000000   -0.005510188    0.000000000
     11        6          -0.004771963   -0.002755094    0.000000000
     12        6          -0.004771963    0.002755094    0.000000000
     13        6          -0.012696039    0.001146879    0.000000000
     14        6           0.007341245   -0.010421653    0.000000000
     15        6          -0.005354793    0.011568531    0.000000000
[...]
    30  H    0.000000   0.000031   0.000398   0.009257  -0.000340   0.000002
    31  H    0.000000   0.000002  -0.000340   0.009257   0.000398   0.000031
    32  H    0.000002   0.000000   0.000031   0.000398   0.009257  -0.000340
    33  H    0.000031   0.000000   0.000002  -0.000340   0.009257   0.000398
    34  H   -0.000340   0.000002   0.000000   0.000031   0.000398   0.009257
    35  H    0.000398   0.000031   0.000000   0.000002  -0.000340   0.009257
    36  H    0.009257  -0.000340   0.000002   0.000000   0.000031   0.000398
               7          8          9         10         11         12
     1  C    0.530944  -0.078202   0.013714  -0.003311   0.013714  -0.078202
     2  C   -0.078202   0.530944  -0.078202   0.013714  -0.003311   0.013714
     3  C    0.013714  -0.078202   0.530944  -0.078202   0.013714  -0.003311
     4  C   -0.003311   0.013714  -0.078202   0.530944  -0.078202   0.013714
     5  C    0.013714  -0.003311   0.013714  -0.078202   0.530944  -0.078202
     6  C   -0.078202   0.013714  -0.003311   0.013714  -0.078202   0.530944
     7  C    4.973952  -0.052310   0.000141  -0.000044   0.000141  -0.052310
     8  C   -0.052310   4.973952  -0.052310   0.000141  -0.000044   0.000141
     9  C    0.000141  -0.052310   4.973952  -0.052310   0.000141  -0.000044
    10  C   -0.000044   0.000141  -0.052310   4.973952  -0.052310   0.000141
    11  C    0.000141  -0.000044   0.000141  -0.052310   4.973952  -0.052310
    12  C   -0.052310   0.000141  -0.000044   0.000141  -0.052310   4.973952
    13  C    0.500616  -0.038970  -0.000028   0.000000   0.000000  -0.000313
    14  C   -0.038970   0.500616  -0.000313   0.000000   0.000000  -0.000028
    15  C   -0.000313   0.500616  -0.038970  -0.000028   0.000000   0.000000
    16  C   -0.000028  -0.038970   0.500616  -0.000313   0.000000   0.000000
    17  C    0.000000  -0.000313   0.500616  -0.038970  -0.000028   0.000000
    18  C    0.000000  -0.000028  -0.038970   0.500616  -0.000313   0.000000
    19  C    0.000000   0.000000  -0.000313   0.500616  -0.038970  -0.000028
    20  C    0.000000   0.000000  -0.000028  -0.038970   0.500616  -0.000313
    21  C   -0.000028   0.000000   0.000000  -0.000313   0.500616  -0.038970
    22  C   -0.000313   0.000000   0.000000  -0.000028  -0.038970   0.500616
    23  C   -0.038970  -0.000028   0.000000   0.000000  -0.000313   0.500616
    24  C    0.500616  -0.000313   0.000000   0.000000  -0.000028  -0.038970
    25  H   -0.026824   0.005745   0.000000   0.000000   0.000000   0.000001
    26  H    0.005745  -0.026824   0.000001   0.000000   0.000000   0.000000
    27  H    0.000001  -0.026824   0.005745   0.000000   0.000000   0.000000
    28  H    0.000000   0.005745  -0.026824   0.000001   0.000000   0.000000
    29  H    0.000000   0.000001  -0.026824   0.005745   0.000000   0.000000
    30  H    0.000000   0.000000   0.005745  -0.026824   0.000001   0.000000
    31  H    0.000000   0.000000   0.000001  -0.026824   0.005745   0.000000
    32  H    0.000000   0.000000   0.000000   0.005745  -0.026824   0.000001
    33  H    0.000000   0.000000   0.000000   0.000001  -0.026824   0.005745
    34  H    0.000001   0.000000   0.000000   0.000000   0.005745  -0.026824
    35  H    0.005745   0.000000   0.000000   0.000000   0.000001  -0.026824
    36  H   -0.026824   0.000001   0.000000   0.000000   0.000000   0.005745
              13         14         15         16         17         18
     1  C   -0.044233  -0.047908   0.008554  -0.001764   0.000005   0.000004
     2  C   -0.047908  -0.044233  -0.044233  -0.047908   0.008554  -0.001764
     3  C   -0.001764   0.008554  -0.047908  -0.044233  -0.044233  -0.047908
     4  C    0.000004   0.000005  -0.001764   0.008554  -0.047908  -0.044233
     5  C    0.000005   0.000004   0.000004   0.000005  -0.001764   0.008554
     6  C    0.008554  -0.001764   0.000005   0.000004   0.000004   0.000005
     7  C    0.500616  -0.038970  -0.000313  -0.000028   0.000000   0.000000
     8  C   -0.038970   0.500616   0.500616  -0.038970  -0.000313  -0.000028
     9  C   -0.000028  -0.000313  -0.038970   0.500616   0.500616  -0.038970
    10  C    0.000000   0.000000  -0.000028  -0.000313  -0.038970   0.500616
    11  C    0.000000   0.000000   0.000000   0.000000  -0.000028  -0.000313
    12  C   -0.000313  -0.000028   0.000000   0.000000   0.000000   0.000000
    13  C    4.687518   0.598573   0.005012  -0.000181   0.000000   0.000000
    14  C    0.598573   4.687518  -0.088044   0.005012   0.000013   0.000000
    15  C    0.005012  -0.088044   4.687518   0.598573   0.005012  -0.000181
    16  C   -0.000181   0.005012   0.598573   4.687518  -0.088044   0.005012
    17  C    0.000000   0.000013   0.005012  -0.088044   4.687518   0.598573
    18  C    0.000000   0.000000  -0.000181   0.005012   0.598573   4.687518
    19  C    0.000000   0.000000   0.000000   0.000013   0.005012  -0.088044
    20  C    0.000000   0.000000   0.000000   0.000000  -0.000181   0.005012
    21  C    0.000000   0.000000   0.000000   0.000000   0.000000   0.000013
    22  C    0.000013   0.000000   0.000000   0.000000   0.000000   0.000000
    23  C    0.005012  -0.000181   0.000000   0.000000   0.000000   0.000000
    24  C   -0.088044   0.005012   0.000013   0.000000   0.000000   0.000000
    25  H    0.411562  -0.033377  -0.000245   0.000005   0.000000   0.000000
    26  H   -0.033377   0.411562  -0.011215   0.000253   0.000000   0.000000
    27  H    0.000253  -0.011215   0.411562  -0.033377  -0.000245   0.000005
    28  H    0.000005  -0.000245  -0.033377   0.411562  -0.011215   0.000253
    29  H    0.000000   0.000000   0.000253  -0.011215   0.411562  -0.033377
    30  H    0.000000   0.000000   0.000005  -0.000245  -0.033377   0.411562
    31  H    0.000000   0.000000   0.000000   0.000000   0.000253  -0.011215
    32  H    0.000000   0.000000   0.000000   0.000000   0.000005  -0.000245
    33  H    0.000000   0.000000   0.000000   0.000000   0.000000   0.000000
    34  H    0.000000   0.000000   0.000000   0.000000   0.000000   0.000000
    35  H   -0.000245   0.000005   0.000000   0.000000   0.000000   0.000000
    36  H   -0.011215   0.000253   0.000000   0.000000   0.000000   0.000000
              19         20         21         22         23         24
     1  C    0.000004   0.000005  -0.001764   0.008554  -0.047908  -0.044233
     2  C    0.000005   0.000004   0.000004   0.000005  -0.001764   0.008554
     3  C    0.008554  -0.001764   0.000005   0.000004   0.000004   0.000005
     4  C   -0.044233  -0.047908   0.008554  -0.001764   0.000005   0.000004
     5  C   -0.047908  -0.044233  -0.044233  -0.047908   0.008554  -0.001764
     6  C   -0.001764   0.008554  -0.047908  -0.044233  -0.044233  -0.047908
     7  C    0.000000   0.000000  -0.000028  -0.000313  -0.038970   0.500616
     8  C    0.000000   0.000000   0.000000   0.000000  -0.000028  -0.000313
     9  C   -0.000313  -0.000028   0.000000   0.000000   0.000000   0.000000
    10  C    0.500616  -0.038970  -0.000313  -0.000028   0.000000   0.000000
    11  C   -0.038970   0.500616   0.500616  -0.038970  -0.000313  -0.000028
    12  C   -0.000028  -0.000313  -0.038970   0.500616   0.500616  -0.038970
    13  C    0.000000   0.000000   0.000000   0.000013   0.005012  -0.088044
    14  C    0.000000   0.000000   0.000000   0.000000  -0.000181   0.005012
    15  C    0.000000   0.000000   0.000000   0.000000   0.000000   0.000013
    16  C    0.000013   0.000000   0.000000   0.000000   0.000000   0.000000
    17  C    0.005012  -0.000181   0.000000   0.000000   0.000000   0.000000
    18  C   -0.088044   0.005012   0.000013   0.000000   0.000000   0.000000
    19  C    4.687518   0.598573   0.005012  -0.000181   0.000000   0.000000
    20  C    0.598573   4.687518  -0.088044   0.005012   0.000013   0.000000
    21  C    0.005012  -0.088044   4.687518   0.598573   0.005012  -0.000181
    22  C   -0.000181   0.005012   0.598573   4.687518  -0.088044   0.005012
    23  C    0.000000   0.000013   0.005012  -0.088044   4.687518   0.598573
    24  C    0.000000   0.000000  -0.000181   0.005012   0.598573   4.687518
    25  H    0.000000   0.000000   0.000000   0.000000   0.000253  -0.011215
    26  H    0.000000   0.000000   0.000000   0.000000   0.000005  -0.000245
    27  H    0.000000   0.000000   0.000000   0.000000   0.000000   0.000000
    28  H    0.000000   0.000000   0.000000   0.000000   0.000000   0.000000
    29  H   -0.000245   0.000005   0.000000   0.000000   0.000000   0.000000
    30  H   -0.011215   0.000253   0.000000   0.000000   0.000000   0.000000
    31  H    0.411562  -0.033377  -0.000245   0.000005   0.000000   0.000000
    32  H   -0.033377   0.411562  -0.011215   0.000253   0.000000   0.000000
    33  H    0.000253  -0.011215   0.411562  -0.033377  -0.000245   0.000005
    34  H    0.000005  -0.000245  -0.033377   0.411562  -0.011215   0.000253
    35  H    0.000000   0.000000   0.000253  -0.011215   0.411562  -0.033377
    36  H    0.000000   0.000000   0.000005  -0.000245  -0.033377   0.411562
              25         26         27         28         29         30
     1  C    0.009257   0.000398  -0.000340   0.000031   0.000002   0.000000
     2  C    0.000398   0.009257   0.009257   0.000398  -0.000340   0.000031
     3  C    0.000031  -0.000340   0.000398   0.009257   0.009257   0.000398
     4  C    0.000000   0.000002   0.000031  -0.000340   0.000398   0.009257
     5  C    0.000002   0.000000   0.000000   0.000002   0.000031  -0.000340
     6  C   -0.000340   0.000031   0.000002   0.000000   0.000000   0.000002
     7  C   -0.026824   0.005745   0.000001   0.000000   0.000000   0.000000
     8  C    0.005745  -0.026824  -0.026824   0.005745   0.000001   0.000000
     9  C    0.000000   0.000001   0.005745  -0.026824  -0.026824   0.005745
    10  C    0.000000   0.000000   0.000000   0.000001   0.005745  -0.026824
    11  C    0.000000   0.000000   0.000000   0.000000   0.000000   0.000001
    12  C    0.000001   0.000000   0.000000   0.000000   0.000000   0.000000
    13  C    0.411562  -0.033377   0.000253   0.000005   0.000000   0.000000
    14  C   -0.033377   0.411562  -0.011215  -0.000245   0.000000   0.000000
    15  C   -0.000245  -0.011215   0.411562  -0.033377   0.000253   0.000005
    16  C    0.000005   0.000253  -0.033377   0.411562  -0.011215  -0.000245
    17  C    0.000000   0.000000  -0.000245  -0.011215   0.411562  -0.033377
    18  C    0.000000   0.000000   0.000005   0.000253  -0.033377   0.411562
    19  C    0.000000   0.000000   0.000000   0.000000  -0.000245  -0.011215
    20  C    0.000000   0.000000   0.000000   0.000000   0.000005   0.000253
    21  C    0.000000   0.000000   0.000000   0.000000   0.000000   0.000000
    22  C    0.000000   0.000000   0.000000   0.000000   0.000000   0.000000
    23  C    0.000253   0.000005   0.000000   0.000000   0.000000   0.000000
    24  C   -0.011215  -0.000245   0.000000   0.000000   0.000000   0.000000
    25  H    0.641026  -0.009527  -0.000009   0.000000   0.000000   0.000000
    26  H   -0.009527   0.641026   0.002719  -0.000009   0.000000   0.000000
    27  H   -0.000009   0.002719   0.641026  -0.009527  -0.000009   0.000000
    28  H    0.000000  -0.000009  -0.009527   0.641026   0.002719  -0.000009
    29  H    0.000000   0.000000  -0.000009   0.002719   0.641026  -0.009527
    30  H    0.000000   0.000000   0.000000  -0.000009  -0.009527   0.641026
    31  H    0.000000   0.000000   0.000000   0.000000  -0.000009   0.002719
    32  H    0.000000   0.000000   0.000000   0.000000   0.000000  -0.000009
    33  H    0.000000   0.000000   0.000000   0.000000   0.000000   0.000000
    34  H    0.000000   0.000000   0.000000   0.000000   0.000000   0.000000
    35  H   -0.000009   0.000000   0.000000   0.000000   0.000000   0.000000
    36  H    0.002719  -0.000009   0.000000   0.000000   0.000000   0.000000
              31         32         33         34         35         36
     1  C    0.000000   0.000002   0.000031  -0.000340   0.000398   0.009257
     2  C    0.000002   0.000000   0.000000   0.000002   0.000031  -0.000340
     3  C   -0.000340   0.000031   0.000002   0.000000   0.000000   0.000002
     4  C    0.009257   0.000398  -0.000340   0.000031   0.000002   0.000000
     5  C    0.000398   0.009257   0.009257   0.000398  -0.000340   0.000031
     6  C    0.000031  -0.000340   0.000398   0.009257   0.009257   0.000398
     7  C    0.000000   0.000000   0.000000   0.000001   0.005745  -0.026824
     8  C    0.000000   0.000000   0.000000   0.000000   0.000000   0.000001
     9  C    0.000001   0.000000   0.000000   0.000000   0.000000   0.000000
    10  C   -0.026824   0.005745   0.000001   0.000000   0.000000   0.000000
    11  C    0.005745  -0.026824  -0.026824   0.005745   0.000001   0.000000
    12  C    0.000000   0.000001   0.005745  -0.026824  -0.026824   0.005745
    13  C    0.000000   0.000000   0.000000   0.000000  -0.000245  -0.011215
    14  C    0.000000   0.000000   0.000000   0.000000   0.000005   0.000253
    15  C    0.000000   0.000000   0.000000   0.000000   0.000000   0.000000
    16  C    0.000000   0.000000   0.000000   0.000000   0.000000   0.000000
    17  C    0.000253   0.000005   0.000000   0.000000   0.000000   0.000000
    18  C   -0.011215  -0.000245   0.000000   0.000000   0.000000   0.000000
    19  C    0.411562  -0.033377   0.000253   0.000005   0.000000   0.000000
    20  C   -0.033377   0.411562  -0.011215  -0.000245   0.000000   0.000000
    21  C   -0.000245  -0.011215   0.411562  -0.033377   0.000253   0.000005
    22  C    0.000005   0.000253  -0.033377   0.411562  -0.011215  -0.000245
    23  C    0.000000   0.000000  -0.000245  -0.011215   0.411562  -0.033377
    24  C    0.000000   0.000000   0.000005   0.000253  -0.033377   0.411562
    25  H    0.000000   0.000000   0.000000   0.000000  -0.000009   0.002719
    26  H    0.000000   0.000000   0.000000   0.000000   0.000000  -0.000009
    27  H    0.000000   0.000000   0.000000   0.000000   0.000000   0.000000
    28  H    0.000000   0.000000   0.000000   0.000000   0.000000   0.000000
    29  H   -0.000009   0.000000   0.000000   0.000000   0.000000   0.000000
    30  H    0.002719  -0.000009   0.000000   0.000000   0.000000   0.000000
    31  H    0.641026  -0.009527  -0.000009   0.000000   0.000000   0.000000
    32  H   -0.009527   0.641026   0.002719  -0.000009   0.000000   0.000000
    33  H   -0.000009   0.002719   0.641026  -0.009527  -0.000009   0.000000
    34  H    0.000000  -0.000009  -0.009527   0.641026   0.002719  -0.000009
    35  H    0.000000   0.000000  -0.000009   0.002719   0.641026  -0.009527
    36  H    0.000000   0.000000   0.000000  -0.000009  -0.009527   0.641026
 Mulliken charges:
               1
     1  C    0.029289
     2  C    0.029289
     3  C    0.029289
     4  C    0.029289
     5  C    0.029289
     6  C    0.029289
     7  C   -0.148682
     8  C   -0.148682
     9  C   -0.148682
    10  C   -0.148682
    11  C   -0.148682
    12  C   -0.148682
    13  C    0.049151
    14  C    0.049151
    15  C    0.049151
    16  C    0.049151
    17  C    0.049151
    18  C    0.049151
    19  C    0.049151
    20  C    0.049151
    21  C    0.049151
    22  C    0.049151
    23  C    0.049151
    24  C    0.049151
    25  H    0.010545
    26  H    0.010545
    27  H    0.010545
    28  H    0.010545
    29  H    0.010545
    30  H    0.010545
    31  H    0.010545
    32  H    0.010545
    33  H    0.010545
    34  H    0.010545
    35  H    0.010545
    36  H    0.010545
 Sum of Mulliken charges =   0.00000
 Mulliken charges with hydrogens summed into heavy atoms:
               1
     1  C    0.029289
     2  C    0.029289
     3  C    0.029289
     4  C    0.029289
     5  C    0.029289
     6  C    0.029289
     7  C   -0.148682
     8  C   -0.148682
     9  C   -0.148682
    10  C   -0.148682
    11  C   -0.148682
    12  C   -0.148682
    13  C    0.059696
    14  C    0.059696
    15  C    0.059696
    16  C    0.059696
    17  C    0.059696
    18  C    0.059696
    19  C    0.059696
    20  C    0.059696
    21  C    0.059696
    22  C    0.059696
    23  C    0.059696
    24  C    0.059696
 Electronic spatial extent (au):  <R**2>=           6129.7759
 Charge=              0.0000 electrons
 Dipole moment (field-independent basis, Debye):
    X=              0.0000    Y=              0.0000    Z=              0.0000  Tot=              0.0000
 Quadrupole moment (field-independent basis, Debye-Ang):
   XX=           -116.9353   YY=           -116.9353   ZZ=           -148.2820
   XY=              0.0000   XZ=              0.0000   YZ=              0.0000
 Traceless Quadrupole moment (field-independent basis, Debye-Ang):
   XX=             10.4489   YY=             10.4489   ZZ=            -20.8978
   XY=              0.0000   XZ=              0.0000   YZ=              0.0000
 Octapole moment (field-independent basis, Debye-Ang**2):
  XXX=              0.0000  YYY=              0.0000  ZZZ=              0.0000  XYY=              0.0000
  XXY=              0.0000  XXZ=              0.0000  XZZ=              0.0000  YZZ=              0.0000
  YYZ=              0.0000  XYZ=              0.0000
 Hexadecapole moment (field-independent basis, Debye-Ang**3):
 XXXX=          -3791.7964 YYYY=          -3791.7964 ZZZZ=           -170.5556 XXXY=              0.0000
 XXXZ=              0.0000 YYYX=              0.0000 YYYZ=              0.0000 ZZZX=              0.0000
 ZZZY=              0.0000 XXYY=          -1263.9321 XXZZ=           -826.0999 YYZZ=           -826.0999
 XXYZ=              0.0000 YYXZ=              0.0000 ZZXY=              0.0000
 N-N= 1.838794177460D+03 E-N=-5.810905311009D+03  KE= 9.159415947965D+02
 Symmetry AG   KE= 2.589458043820D+02
 Symmetry B1G  KE= 1.868342850157D+02
 Symmetry B2G  KE= 5.974616399328D+00
 Symmetry B3G  KE= 6.066066619504D+00
 Symmetry AU   KE= 4.174938787064D+00
 Symmetry B1U  KE= 7.772592784088D+00
 Symmetry B2U  KE= 2.540073514309D+02
 Symmetry B3U  KE= 1.921659393780D+02
 1\1\GINC-E2-W6420B-01\FOpt\RHF\CC-pVDZ\C24H12\WPURWANT\09-Dec-2020\0\\
 #RHF/cc-pVDZ 5D 7F units=Ang opt\\Coronene RHF with cc-pVDZ basis (geo
 metry optimization)\\0,1\C,0.,1.4279989627,0.\C,1.2366833783,0.7139994
 814,0.\C,1.2366833783,-0.7139994814,0.\C,0.,-1.4279989627,0.\C,-1.2366
 833783,-0.7139994814,0.\C,-1.2366833783,0.7139994814,0.\C,0.,2.8272644
 917,0.\C,2.448482873,1.4136322459,0.\C,2.448482873,-1.4136322459,0.\C,
 0.,-2.8272644917,0.\C,-2.448482873,-1.4136322459,0.\C,-2.448482873,1.4
 136322459,0.\C,1.2478838487,3.5181142991,0.\C,2.4228344321,2.839756263
 5,0.\C,3.6707182808,0.6783580356,0.\C,3.6707182808,-0.6783580356,0.\C,
 2.4228344321,-2.8397562635,0.\C,1.2478838487,-3.5181142991,0.\C,-1.247
 8838487,-3.5181142991,0.\C,-2.4228344321,-2.8397562635,0.\C,-3.6707182
 808,-0.6783580356,0.\C,-3.6707182808,0.6783580356,0.\C,-2.4228344321,2
 .8397562635,0.\C,-1.2478838487,3.5181142991,0.\H,1.2440429143,4.600107
 7211,0.\H,3.3617886895,3.3774266278,0.\H,4.6058316038,1.2226810934,0.\
 H,4.6058316038,-1.2226810934,0.\H,3.3617886895,-3.3774266278,0.\H,1.24
 40429143,-4.6001077211,0.\H,-1.2440429143,-4.6001077211,0.\H,-3.361788
 6895,-3.3774266278,0.\H,-4.6058316038,-1.2226810934,0.\H,-4.6058316038
 ,1.2226810934,0.\H,-3.3617886895,3.3774266278,0.\H,-1.2440429143,4.600
 1077211,0.\\Version=ES64L-G09RevD.01\State=1-A1G\HF=-916.0154597\RMSD=
 6.234e-09\RMSF=2.300e-04\Dipole=0.,0.,0.\Quadrupole=7.7684867,7.768486
 7,-15.5369733,0.,0.,0.\PG=D06H [3C2'(C1C1.C1C1),SGH(C12H12)]\\@


    THE DOUGHNUT CREED
 AS YOU RAMBLE ON THROUGH LIFE, BROTHER
 WHATEVER BE YOUR GOAL
 KEEP YOUR EYE UPON THE DOUGHNUT
 AND NOT UPON THE HOLE.
 Job cpu time:       0 days  0 hours  3 minutes 58.2 seconds.
 File lengths (MBytes):  RWF=    136 Int=      0 D2E=      0 Chk=     13 Scr=      1
 Normal termination of Gaussian 09 at Wed Dec  9 14:13:33 2020.
